/*--------------------------------*- C++ -*----------------------------------*\
| =========                 |                                                 |
| \\      /  F ield         | OpenFOAM: The Open Source CFD Toolbox           |
|  \\    /   O peration     | Version:  4.x                                   |
|   \\  /    A nd           | Web:      www.OpenFOAM.org                      |
|    \\/     M anipulation  |                                                 |
\*---------------------------------------------------------------------------*/
FoamFile
{
    version     2.0;
    format      ascii;
    class       volVectorField;
    location    "2";
    object      U;
}
// * * * * * * * * * * * * * * * * * * * * * * * * * * * * * * * * * * * * * //

dimensions      [0 1 -1 0 0 0 0];

internalField   nonuniform List<vector> 
10880
(
(0.0617142 0.0262315 0)
(0.103604 0.0465481 0)
(0.11826 0.0544551 0)
(0.123444 0.0586433 0)
(0.12725 0.0610375 0)
(0.130166 0.0625327 0)
(0.13236 0.0636629 0)
(0.133808 0.0647957 0)
(0.133998 0.0662137 0)
(0.132117 0.0679814 0)
(0.127062 0.070182 0)
(0.117326 0.0726454 0)
(0.102276 0.0742137 0)
(0.0851759 0.0734263 0)
(0.0715791 0.0706614 0)
(0.0634292 0.0682443 0)
(0.0588537 0.0668532 0)
(0.0558516 0.06611 0)
(0.0534344 0.0656857 0)
(0.0512722 0.0653605 0)
(0.0493958 0.0650421 0)
(0.047851 0.0647614 0)
(0.0465718 0.0645435 0)
(0.0454826 0.064376 0)
(0.044542 0.0642426 0)
(0.0437249 0.0641331 0)
(0.0430116 0.064041 0)
(0.042387 0.0639623 0)
(0.0418388 0.0638942 0)
(0.0413573 0.0638349 0)
(0.0409337 0.0637831 0)
(0.0405615 0.0637369 0)
(0.0402353 0.0636956 0)
(0.0399508 0.0636583 0)
(0.0397042 0.0636246 0)
(0.0394922 0.0635939 0)
(0.0393122 0.0635661 0)
(0.0391619 0.063541 0)
(0.0390387 0.0635187 0)
(0.0389406 0.0634988 0)
(0.0388662 0.0634813 0)
(0.038815 0.0634665 0)
(0.0387866 0.0634552 0)
(0.0387809 0.0634492 0)
(0.0387977 0.0634504 0)
(0.0388374 0.0634606 0)
(0.0389014 0.063477 0)
(0.0389903 0.0634967 0)
(0.0391045 0.0635185 0)
(0.0392446 0.0635417 0)
(0.039412 0.0635663 0)
(0.0396083 0.0635924 0)
(0.0398361 0.06362 0)
(0.0400986 0.063649 0)
(0.0403992 0.0636798 0)
(0.040741 0.0637124 0)
(0.0411279 0.0637471 0)
(0.0415647 0.0637839 0)
(0.0420571 0.0638227 0)
(0.0426114 0.0638633 0)
(0.0432356 0.0639056 0)
(0.0439383 0.0639494 0)
(0.0447296 0.0639949 0)
(0.0456212 0.064042 0)
(0.046628 0.0640896 0)
(0.0477675 0.0641365 0)
(0.049062 0.0641812 0)
(0.0505386 0.0642208 0)
(0.0522301 0.0642518 0)
(0.0541791 0.0642687 0)
(0.0564493 0.0642592 0)
(0.0590955 0.0642263 0)
(0.0622048 0.0641693 0)
(0.065936 0.064032 0)
(0.0705209 0.0637683 0)
(0.0762588 0.0633725 0)
(0.0835404 0.0626385 0)
(0.0937532 0.0620856 0)
(0.10469 0.0585698 0)
(0.131108 0.0591878 0)
(0.0558448 0.0303522 0)
(0.0724789 0.0539701 0)
(0.0865315 0.0600703 0)
(0.0958992 0.0635088 0)
(0.102983 0.0661246 0)
(0.109149 0.0667199 0)
(0.114872 0.067001 0)
(0.120235 0.0674043 0)
(0.124967 0.0687424 0)
(0.129584 0.0713978 0)
(0.130752 0.075496 0)
(0.129677 0.0810255 0)
(0.124566 0.0850598 0)
(0.114269 0.0850899 0)
(0.101879 0.0813611 0)
(0.0904311 0.0766657 0)
(0.0817084 0.0735686 0)
(0.0757287 0.0723572 0)
(0.0717417 0.0720741 0)
(0.0691214 0.0719323 0)
(0.0669601 0.0717503 0)
(0.0650627 0.0716024 0)
(0.0633959 0.0714985 0)
(0.0619268 0.0714174 0)
(0.0606355 0.0713506 0)
(0.0595013 0.0712953 0)
(0.0585035 0.0712489 0)
(0.0576249 0.0712093 0)
(0.0568508 0.0711753 0)
(0.0561686 0.0711456 0)
(0.0555665 0.0711193 0)
(0.0550351 0.071096 0)
(0.0545677 0.0710752 0)
(0.0541581 0.0710567 0)
(0.0538007 0.0710401 0)
(0.0534906 0.0710247 0)
(0.0532239 0.0710101 0)
(0.0529971 0.0709969 0)
(0.0528067 0.0709849 0)
(0.0526498 0.0709733 0)
(0.0525244 0.0709608 0)
(0.0524293 0.070946 0)
(0.0523641 0.0709275 0)
(0.0523287 0.0709031 0)
(0.0523224 0.0708685 0)
(0.0523442 0.0708207 0)
(0.0523932 0.0707648 0)
(0.0524697 0.0707047 0)
(0.0525747 0.0706419 0)
(0.052709 0.0705762 0)
(0.0528741 0.070507 0)
(0.0530713 0.0704337 0)
(0.0533033 0.0703543 0)
(0.0535732 0.0702678 0)
(0.0538846 0.0701746 0)
(0.0542405 0.0700752 0)
(0.0546447 0.0699667 0)
(0.0551013 0.0698481 0)
(0.0556156 0.0697187 0)
(0.0561935 0.0695766 0)
(0.0568422 0.0694203 0)
(0.0575694 0.0692481 0)
(0.0583828 0.0690568 0)
(0.059297 0.0688425 0)
(0.0603271 0.0686023 0)
(0.0614858 0.0683321 0)
(0.0627908 0.0680255 0)
(0.0642645 0.067678 0)
(0.065929 0.0672811 0)
(0.0678157 0.0668207 0)
(0.0699944 0.0662881 0)
(0.0723899 0.0656514 0)
(0.0752788 0.0648462 0)
(0.0788427 0.0638267 0)
(0.082972 0.0625535 0)
(0.0878952 0.0610333 0)
(0.0936933 0.0587634 0)
(0.101421 0.0557739 0)
(0.109489 0.0496908 0)
(0.12329 0.0426766 0)
(0.0526082 0.0160376 0)
(0.0619572 0.034722 0)
(0.0732841 0.0442401 0)
(0.0820376 0.049838 0)
(0.0889911 0.0535298 0)
(0.0956085 0.0557822 0)
(0.102258 0.0570657 0)
(0.108682 0.0586653 0)
(0.114207 0.060893 0)
(0.118453 0.0646221 0)
(0.121414 0.0708983 0)
(0.122882 0.0791991 0)
(0.121338 0.0872418 0)
(0.116607 0.0915311 0)
(0.107389 0.0901296 0)
(0.0965977 0.0851544 0)
(0.0870583 0.0796193 0)
(0.0801384 0.0753251 0)
(0.0754773 0.0725557 0)
(0.0721377 0.0708981 0)
(0.0694372 0.0698487 0)
(0.0671402 0.069088 0)
(0.0651738 0.0684743 0)
(0.0634948 0.0679594 0)
(0.0620672 0.0675225 0)
(0.0608461 0.0671485 0)
(0.0597913 0.0668254 0)
(0.0588746 0.0665441 0)
(0.0580751 0.0662978 0)
(0.0573757 0.0660817 0)
(0.0567621 0.065895 0)
(0.0562233 0.065727 0)
(0.0557506 0.0655743 0)
(0.0553369 0.0654358 0)
(0.0549757 0.06531 0)
(0.0546625 0.0651952 0)
(0.0543882 0.0650891 0)
(0.0541518 0.0649905 0)
(0.0539556 0.0648985 0)
(0.0537973 0.0648124 0)
(0.0536744 0.0647314 0)
(0.053584 0.0646552 0)
(0.0535228 0.0645841 0)
(0.0534879 0.0645207 0)
(0.053477 0.0644706 0)
(0.0534886 0.0644345 0)
(0.0535243 0.0644047 0)
(0.0535862 0.0643768 0)
(0.0536762 0.0643488 0)
(0.0537966 0.0643194 0)
(0.0539493 0.0642878 0)
(0.0541374 0.064253 0)
(0.0543654 0.064215 0)
(0.0546298 0.0641737 0)
(0.0549301 0.0641282 0)
(0.0552731 0.0640774 0)
(0.0556628 0.0640204 0)
(0.0561034 0.0639559 0)
(0.0565992 0.0638828 0)
(0.0571566 0.0638002 0)
(0.0577829 0.0637062 0)
(0.0584864 0.0635986 0)
(0.0592767 0.0634741 0)
(0.0601638 0.0633286 0)
(0.0611593 0.0631587 0)
(0.062278 0.0629595 0)
(0.0635369 0.0627241 0)
(0.0649572 0.0624429 0)
(0.0665632 0.0621044 0)
(0.0683829 0.0616885 0)
(0.07046 0.0611857 0)
(0.072848 0.0605438 0)
(0.0755757 0.0596695 0)
(0.0786795 0.0585252 0)
(0.0822426 0.0570884 0)
(0.0864539 0.0551584 0)
(0.0913497 0.0524146 0)
(0.0973279 0.0486132 0)
(0.103326 0.0421218 0)
(0.11124 0.0343543 0)
(0.0514839 0.0126243 0)
(0.0571868 0.0308448 0)
(0.0655648 0.0415294 0)
(0.0732437 0.0476729 0)
(0.0800079 0.0512884 0)
(0.0867754 0.0531067 0)
(0.0937314 0.0541895 0)
(0.10032 0.0558877 0)
(0.105641 0.0592198 0)
(0.108842 0.0644718 0)
(0.109903 0.0713992 0)
(0.109717 0.0801 0)
(0.108558 0.089335 0)
(0.105056 0.0956796 0)
(0.0991272 0.0964132 0)
(0.0919039 0.0921138 0)
(0.0849464 0.085715 0)
(0.0794236 0.0802226 0)
(0.0752489 0.0767582 0)
(0.0719279 0.0748725 0)
(0.0691718 0.0737998 0)
(0.0668614 0.0730836 0)
(0.0649244 0.0725228 0)
(0.0632926 0.0720105 0)
(0.0619059 0.071577 0)
(0.0607172 0.0712268 0)
(0.05969 0.0709394 0)
(0.0587964 0.0706983 0)
(0.0580156 0.0704939 0)
(0.0573308 0.0703196 0)
(0.0567293 0.0701693 0)
(0.0562013 0.0700376 0)
(0.055738 0.0699211 0)
(0.0553324 0.0698177 0)
(0.0549784 0.0697252 0)
(0.0546705 0.0696419 0)
(0.0544041 0.0695664 0)
(0.0541763 0.0694965 0)
(0.0539839 0.0694308 0)
(0.0538241 0.0693687 0)
(0.0536949 0.0693095 0)
(0.0535949 0.0692525 0)
(0.0535231 0.0691964 0)
(0.0534788 0.0691382 0)
(0.0534621 0.0690716 0)
(0.0534734 0.068992 0)
(0.0535124 0.0689036 0)
(0.0535792 0.0688095 0)
(0.0536739 0.068711 0)
(0.0537971 0.0686078 0)
(0.0539495 0.0684994 0)
(0.054132 0.068384 0)
(0.054347 0.0682612 0)
(0.0545978 0.068131 0)
(0.0548881 0.0679912 0)
(0.0552204 0.06784 0)
(0.0555979 0.067676 0)
(0.0560246 0.067498 0)
(0.0565057 0.067305 0)
(0.0570467 0.0670862 0)
(0.0576541 0.0668435 0)
(0.0583355 0.0665732 0)
(0.0590995 0.066271 0)
(0.0599554 0.0659315 0)
(0.0609145 0.0655486 0)
(0.06199 0.0651151 0)
(0.0631967 0.0646216 0)
(0.0645538 0.064055 0)
(0.0660808 0.0634049 0)
(0.0678015 0.0626428 0)
(0.0697505 0.0617404 0)
(0.0719673 0.0606517 0)
(0.0744815 0.059313 0)
(0.0773199 0.0576653 0)
(0.0805309 0.0556191 0)
(0.0842015 0.0530316 0)
(0.0883106 0.0496016 0)
(0.0929392 0.045074 0)
(0.0973569 0.0385334 0)
(0.102002 0.0306939 0)
(0.0508826 0.00974703 0)
(0.0545478 0.0249546 0)
(0.0608953 0.03498 0)
(0.0676729 0.0410267 0)
(0.074252 0.0444156 0)
(0.0809662 0.046146 0)
(0.0877164 0.0475725 0)
(0.0936856 0.0503226 0)
(0.0977456 0.0552909 0)
(0.0990356 0.0623934 0)
(0.0976215 0.0713023 0)
(0.094764 0.0815117 0)
(0.0917498 0.0919013 0)
(0.0888145 0.0991468 0)
(0.0861148 0.100038 0)
(0.0831303 0.0965224 0)
(0.0796461 0.0898778 0)
(0.0761722 0.0837363 0)
(0.0729515 0.0795267 0)
(0.0701167 0.0769326 0)
(0.0677187 0.0752049 0)
(0.0657162 0.0738836 0)
(0.0640396 0.0728093 0)
(0.0626092 0.0719153 0)
(0.0613627 0.0711707 0)
(0.0602715 0.0705484 0)
(0.0593172 0.0700222 0)
(0.0584819 0.0695711 0)
(0.0577491 0.0691801 0)
(0.0571034 0.0688378 0)
(0.0565313 0.068536 0)
(0.0560249 0.0682674 0)
(0.0555792 0.0680265 0)
(0.0551884 0.0678089 0)
(0.0548468 0.0676124 0)
(0.0545498 0.067438 0)
(0.0542935 0.0672769 0)
(0.0540746 0.0671262 0)
(0.05389 0.0669844 0)
(0.0537371 0.0668506 0)
(0.0536141 0.0667238 0)
(0.0535196 0.0666034 0)
(0.0534529 0.0664885 0)
(0.0534138 0.0663799 0)
(0.0534019 0.0662809 0)
(0.0534167 0.0661917 0)
(0.0534572 0.0661057 0)
(0.0535235 0.0660191 0)
(0.0536162 0.0659296 0)
(0.053736 0.0658358 0)
(0.0538834 0.0657367 0)
(0.0540595 0.0656313 0)
(0.054267 0.0655185 0)
(0.0545098 0.065397 0)
(0.0547914 0.065265 0)
(0.0551139 0.0651206 0)
(0.0554799 0.0649619 0)
(0.055893 0.0647864 0)
(0.0563588 0.0645917 0)
(0.0568825 0.0643754 0)
(0.0574696 0.0641341 0)
(0.0581273 0.0638636 0)
(0.0588632 0.0635587 0)
(0.0596863 0.0632136 0)
(0.0606065 0.0628208 0)
(0.0616355 0.0623723 0)
(0.0627867 0.0618572 0)
(0.0640756 0.061257 0)
(0.0655198 0.0605699 0)
(0.0671402 0.0597379 0)
(0.0689595 0.0587508 0)
(0.0710022 0.0575683 0)
(0.0732879 0.0561288 0)
(0.0758326 0.0543608 0)
(0.0786525 0.0521717 0)
(0.0817643 0.049422 0)
(0.0851072 0.0458826 0)
(0.0886185 0.0413425 0)
(0.0917728 0.0353009 0)
(0.0944574 0.0281297 0)
(0.0506007 0.00806684 0)
(0.053214 0.0212886 0)
(0.0582146 0.0306982 0)
(0.0641088 0.0365678 0)
(0.0701959 0.0397069 0)
(0.0764197 0.0413206 0)
(0.0824154 0.043216 0)
(0.0872275 0.0473249 0)
(0.08968 0.0545553 0)
(0.0888881 0.0641705 0)
(0.0850746 0.074635 0)
(0.080035 0.0850745 0)
(0.0760557 0.0945649 0)
(0.0743501 0.100204 0)
(0.0743906 0.100553 0)
(0.0745848 0.0976522 0)
(0.0739978 0.0914565 0)
(0.0724699 0.0855856 0)
(0.070392 0.081391 0)
(0.0682802 0.0786507 0)
(0.0663804 0.0767603 0)
(0.0647209 0.0753288 0)
(0.063271 0.0741853 0)
(0.0619945 0.073249 0)
(0.060862 0.0724767 0)
(0.0598572 0.0718345 0)
(0.058968 0.0712937 0)
(0.0581819 0.0708337 0)
(0.0574866 0.0704409 0)
(0.0568709 0.0701103 0)
(0.0563259 0.0698264 0)
(0.055844 0.0695721 0)
(0.055419 0.0693428 0)
(0.0550448 0.0691375 0)
(0.0547166 0.068953 0)
(0.054431 0.0687854 0)
(0.054185 0.0686319 0)
(0.0539748 0.0684904 0)
(0.0537973 0.068359 0)
(0.0536502 0.0682361 0)
(0.0535315 0.06812 0)
(0.0534399 0.0680092 0)
(0.0533743 0.0679023 0)
(0.0533339 0.067797 0)
(0.0533186 0.0676897 0)
(0.0533288 0.0675767 0)
(0.0533649 0.0674588 0)
(0.0534269 0.0673371 0)
(0.0535151 0.0672117 0)
(0.05363 0.0670818 0)
(0.0537727 0.0669476 0)
(0.0539446 0.0668002 0)
(0.0541472 0.0666411 0)
(0.0543827 0.0664697 0)
(0.0546536 0.0662858 0)
(0.0549628 0.0660878 0)
(0.0553136 0.0658731 0)
(0.0557099 0.0656378 0)
(0.0561562 0.0653785 0)
(0.0566573 0.0650909 0)
(0.0572184 0.0647711 0)
(0.0578459 0.064414 0)
(0.0585466 0.0640139 0)
(0.0593286 0.0635637 0)
(0.0602007 0.0630551 0)
(0.0611729 0.0624781 0)
(0.0622571 0.0618203 0)
(0.0634649 0.0610662 0)
(0.0648123 0.0601969 0)
(0.066315 0.0591873 0)
(0.0679848 0.0580041 0)
(0.0698345 0.0566037 0)
(0.0718747 0.0549301 0)
(0.0741087 0.0529163 0)
(0.0765295 0.0504761 0)
(0.0791153 0.047495 0)
(0.0817858 0.0438126 0)
(0.0844203 0.0392821 0)
(0.0866332 0.0336399 0)
(0.0881211 0.0271403 0)
(0.0504385 0.00684962 0)
(0.052418 0.0183011 0)
(0.0564689 0.0267398 0)
(0.0615505 0.0320846 0)
(0.0669983 0.0348797 0)
(0.0725186 0.0365004 0)
(0.0775483 0.0391457 0)
(0.0810608 0.0449435 0)
(0.0819557 0.0545673 0)
(0.0795723 0.0666507 0)
(0.0744268 0.0787305 0)
(0.0686992 0.0889777 0)
(0.0651651 0.096501 0)
(0.0648753 0.100055 0)
(0.0664809 0.0998547 0)
(0.0683582 0.0966297 0)
(0.0694483 0.0914718 0)
(0.0691672 0.0865669 0)
(0.0679527 0.0828286 0)
(0.0664458 0.0801503 0)
(0.0649636 0.0781481 0)
(0.0635933 0.0765607 0)
(0.0623494 0.0752618 0)
(0.0612269 0.0741818 0)
(0.0602166 0.073275 0)
(0.0593101 0.0725066 0)
(0.0584988 0.0718487 0)
(0.0577734 0.0712808 0)
(0.0571255 0.070787 0)
(0.0565495 0.0703551 0)
(0.0560406 0.0699744 0)
(0.0555916 0.0696357 0)
(0.0551946 0.0693324 0)
(0.0548438 0.0690595 0)
(0.0545356 0.0688128 0)
(0.0542668 0.0685886 0)
(0.0540343 0.0683829 0)
(0.0538351 0.0681925 0)
(0.0536668 0.0680148 0)
(0.0535273 0.0678476 0)
(0.0534149 0.067689 0)
(0.0533284 0.0675373 0)
(0.053267 0.0673909 0)
(0.0532304 0.0672485 0)
(0.0532182 0.0671101 0)
(0.0532304 0.0669752 0)
(0.0532666 0.0668405 0)
(0.0533265 0.0667034 0)
(0.0534108 0.0665617 0)
(0.0535205 0.0664139 0)
(0.0536572 0.0662584 0)
(0.0538227 0.0660939 0)
(0.0540177 0.0659186 0)
(0.0542432 0.0657304 0)
(0.0545013 0.065527 0)
(0.0547954 0.0653057 0)
(0.0551291 0.0650639 0)
(0.0555062 0.0647985 0)
(0.0559304 0.0645058 0)
(0.0564062 0.0641817 0)
(0.0569382 0.0638215 0)
(0.057532 0.06342 0)
(0.0581937 0.0629707 0)
(0.0589304 0.0624662 0)
(0.0597495 0.0618976 0)
(0.0606594 0.0612542 0)
(0.0616694 0.060523 0)
(0.0627893 0.0596876 0)
(0.0640295 0.058729 0)
(0.0654 0.0576197 0)
(0.0669083 0.0563277 0)
(0.0685602 0.0548148 0)
(0.0703566 0.0530318 0)
(0.0722891 0.0509188 0)
(0.0743356 0.0484025 0)
(0.0764535 0.0453934 0)
(0.0785547 0.0417804 0)
(0.0805045 0.0374685 0)
(0.0820184 0.0323296 0)
(0.082759 0.0265477 0)
(0.0503422 0.00593082 0)
(0.0519278 0.0159352 0)
(0.0552931 0.0234499 0)
(0.0596461 0.0282751 0)
(0.0643767 0.0308263 0)
(0.0690732 0.032628 0)
(0.0730801 0.0362196 0)
(0.0754057 0.0438675 0)
(0.0751266 0.0558993 0)
(0.0719166 0.0701127 0)
(0.0666532 0.0830791 0)
(0.0616508 0.0923674 0)
(0.0593864 0.0975387 0)
(0.0601064 0.0990149 0)
(0.0622598 0.0980158 0)
(0.0645675 0.0949994 0)
(0.0660553 0.0909114 0)
(0.0662699 0.0869396 0)
(0.0656063 0.0836883 0)
(0.0645824 0.081145 0)
(0.0634736 0.0791155 0)
(0.0623852 0.0774545 0)
(0.0613559 0.0760761 0)
(0.0603999 0.0749217 0)
(0.0595217 0.0739469 0)
(0.0587212 0.073117 0)
(0.0579957 0.0724049 0)
(0.0573407 0.0717895 0)
(0.0567515 0.0712549 0)
(0.0562241 0.0707884 0)
(0.0557542 0.0703781 0)
(0.0553366 0.0700134 0)
(0.0549661 0.0696869 0)
(0.0546383 0.0693932 0)
(0.0543497 0.0691276 0)
(0.0540974 0.0688862 0)
(0.0538787 0.0686649 0)
(0.0536911 0.0684605 0)
(0.0535324 0.0682703 0)
(0.0534008 0.0680919 0)
(0.0532949 0.0679232 0)
(0.0532135 0.0677621 0)
(0.0531557 0.0676069 0)
(0.053121 0.0674555 0)
(0.0531087 0.0673055 0)
(0.0531192 0.0671544 0)
(0.0531524 0.067001 0)
(0.0532088 0.066844 0)
(0.0532886 0.0666822 0)
(0.0533926 0.0665139 0)
(0.053522 0.0663374 0)
(0.0536778 0.0661501 0)
(0.0538612 0.0659495 0)
(0.0540738 0.0657336 0)
(0.0543178 0.0655005 0)
(0.0545961 0.0652478 0)
(0.0549115 0.0649724 0)
(0.0552672 0.0646707 0)
(0.0556666 0.0643386 0)
(0.0561138 0.0639714 0)
(0.0566129 0.0635642 0)
(0.0571689 0.0631111 0)
(0.0577872 0.0626052 0)
(0.0584734 0.0620385 0)
(0.0592339 0.0614015 0)
(0.0600754 0.060683 0)
(0.061005 0.0598694 0)
(0.0620297 0.0589444 0)
(0.0631564 0.0578881 0)
(0.0643907 0.0566757 0)
(0.0657358 0.0552775 0)
(0.0671909 0.0536581 0)
(0.0687493 0.0517744 0)
(0.0703948 0.0495751 0)
(0.0720966 0.0470011 0)
(0.073803 0.0439857 0)
(0.0754286 0.0404563 0)
(0.0768456 0.0363599 0)
(0.0778462 0.0316455 0)
(0.0781049 0.0264658 0)
(0.050279 0.00519317 0)
(0.0515928 0.0139754 0)
(0.0544234 0.0206392 0)
(0.0581198 0.0249677 0)
(0.0621289 0.0273413 0)
(0.0659989 0.0294369 0)
(0.0690622 0.0340704 0)
(0.0704285 0.0435353 0)
(0.0694008 0.0576762 0)
(0.0660128 0.0734878 0)
(0.0614288 0.0867677 0)
(0.0578537 0.0947559 0)
(0.0569607 0.0975384 0)
(0.0581721 0.0976966 0)
(0.0601567 0.0961929 0)
(0.062126 0.0935009 0)
(0.0634102 0.0902027 0)
(0.0637679 0.086976 0)
(0.0634542 0.0841786 0)
(0.0627989 0.0818361 0)
(0.0620022 0.0798711 0)
(0.0611625 0.0782134 0)
(0.0603297 0.0768093 0)
(0.0595306 0.0756143 0)
(0.0587791 0.0745913 0)
(0.0580824 0.0737099 0)
(0.0574425 0.0729458 0)
(0.0568589 0.0722794 0)
(0.0563296 0.0716954 0)
(0.0558521 0.071181 0)
(0.0554239 0.0707252 0)
(0.0550412 0.0703185 0)
(0.0547004 0.0699535 0)
(0.0543981 0.0696241 0)
(0.0541313 0.0693254 0)
(0.0538976 0.0690528 0)
(0.0536945 0.0688024 0)
(0.05352 0.0685707 0)
(0.0533722 0.0683547 0)
(0.0532496 0.0681516 0)
(0.0531508 0.067959 0)
(0.0530749 0.0677747 0)
(0.0530211 0.0675967 0)
(0.052989 0.0674229 0)
(0.0529782 0.0672516 0)
(0.0529887 0.0670813 0)
(0.0530204 0.0669097 0)
(0.0530735 0.0667347 0)
(0.0531485 0.0665544 0)
(0.0532461 0.0663668 0)
(0.0533672 0.0661697 0)
(0.053513 0.0659609 0)
(0.0536848 0.065738 0)
(0.0538841 0.0654989 0)
(0.0541127 0.0652409 0)
(0.0543729 0.0649611 0)
(0.0546674 0.064656 0)
(0.054999 0.0643219 0)
(0.0553709 0.0639544 0)
(0.0557866 0.063549 0)
(0.0562497 0.0631 0)
(0.0567645 0.0626014 0)
(0.0573354 0.062046 0)
(0.0579671 0.0614254 0)
(0.0586647 0.0607299 0)
(0.0594334 0.0599483 0)
(0.0602782 0.059067 0)
(0.0612038 0.0580701 0)
(0.062214 0.0569384 0)
(0.0633109 0.0556492 0)
(0.0644937 0.0541754 0)
(0.0657572 0.0524857 0)
(0.0670896 0.0505433 0)
(0.0684697 0.0483069 0)
(0.069863 0.0457307 0)
(0.0712163 0.042768 0)
(0.0724517 0.039374 0)
(0.0734561 0.0355245 0)
(0.0740789 0.0312103 0)
(0.0740232 0.0265568 0)
(0.0502341 0.00458063 0)
(0.0513454 0.012332 0)
(0.0537381 0.0182644 0)
(0.0568488 0.0221799 0)
(0.0601794 0.0244665 0)
(0.0632848 0.0269433 0)
(0.0655385 0.032638 0)
(0.0661893 0.0437859 0)
(0.0647554 0.0596659 0)
(0.0615463 0.076475 0)
(0.0578999 0.0895177 0)
(0.0558069 0.0959208 0)
(0.0559248 0.0970636 0)
(0.0571697 0.0965225 0)
(0.0587309 0.0947736 0)
(0.0602257 0.09233 0)
(0.0612362 0.0895875 0)
(0.0616211 0.0869017 0)
(0.0615194 0.0844643 0)
(0.0611238 0.0823148 0)
(0.0605693 0.0804379 0)
(0.0599379 0.0788091 0)
(0.0592801 0.0774004 0)
(0.0586273 0.0761818 0)
(0.0579983 0.0751248 0)
(0.0574043 0.0742044 0)
(0.0568509 0.0733997 0)
(0.0563403 0.0726931 0)
(0.055873 0.0720701 0)
(0.0554482 0.0715187 0)
(0.0550645 0.0710283 0)
(0.0547197 0.0705897 0)
(0.0544111 0.0701953 0)
(0.0541364 0.069839 0)
(0.0538932 0.0695154 0)
(0.0536796 0.0692198 0)
(0.0534936 0.068948 0)
(0.0533335 0.0686965 0)
(0.0531977 0.0684619 0)
(0.053085 0.0682414 0)
(0.0529942 0.0680324 0)
(0.0529244 0.0678324 0)
(0.0528751 0.0676392 0)
(0.0528457 0.0674507 0)
(0.0528359 0.0672645 0)
(0.0528457 0.0670786 0)
(0.0528751 0.0668908 0)
(0.0529244 0.0666992 0)
(0.0529941 0.0665018 0)
(0.0530847 0.0662965 0)
(0.053197 0.066081 0)
(0.0533321 0.065853 0)
(0.0534913 0.0656098 0)
(0.0536757 0.065349 0)
(0.0538872 0.0650675 0)
(0.0541278 0.0647624 0)
(0.0543997 0.0644301 0)
(0.0547054 0.0640665 0)
(0.0550477 0.0636673 0)
(0.0554296 0.0632274 0)
(0.0558541 0.062741 0)
(0.0563248 0.0622019 0)
(0.0568454 0.0616026 0)
(0.0574195 0.0609348 0)
(0.058051 0.0601885 0)
(0.0587437 0.0593527 0)
(0.0595008 0.058414 0)
(0.060325 0.0573572 0)
(0.0612177 0.0561644 0)
(0.062178 0.0548147 0)
(0.0632023 0.0532842 0)
(0.0642821 0.0515457 0)
(0.0654026 0.0495689 0)
(0.0665405 0.047321 0)
(0.0676605 0.0447683 0)
(0.068712 0.0418793 0)
(0.0696269 0.038629 0)
(0.0703088 0.0350118 0)
(0.0706507 0.0310409 0)
(0.0703825 0.0268228 0)
(0.0501996 0.00406146 0)
(0.051148 0.0109426 0)
(0.0531685 0.016265 0)
(0.0557611 0.0198575 0)
(0.0584815 0.0221311 0)
(0.0609168 0.0250326 0)
(0.0625076 0.0317435 0)
(0.0626483 0.0443718 0)
(0.0610405 0.0616144 0)
(0.0581529 0.0789532 0)
(0.055393 0.0913844 0)
(0.0544264 0.0961104 0)
(0.0550739 0.0964867 0)
(0.0561712 0.095521 0)
(0.0574009 0.0936841 0)
(0.0585548 0.0914505 0)
(0.059362 0.0890826 0)
(0.0597421 0.0867628 0)
(0.0597713 0.0845933 0)
(0.0595586 0.0826126 0)
(0.0591917 0.0808327 0)
(0.0587339 0.0792531 0)
(0.0582301 0.0778622 0)
(0.0577111 0.076641 0)
(0.0571975 0.0755685 0)
(0.0567023 0.074625 0)
(0.0562335 0.073793 0)
(0.0557954 0.0730572 0)
(0.0553903 0.0724044 0)
(0.0550188 0.0718234 0)
(0.0546807 0.0713041 0)
(0.054375 0.070838 0)
(0.0541 0.0704177 0)
(0.0538542 0.0700369 0)
(0.0536359 0.0696902 0)
(0.0534436 0.0693729 0)
(0.0532757 0.0690807 0)
(0.0531309 0.0688098 0)
(0.0530079 0.0685569 0)
(0.0529057 0.0683189 0)
(0.0528234 0.0680931 0)
(0.0527601 0.0678769 0)
(0.0527154 0.0676678 0)
(0.0526888 0.0674635 0)
(0.0526802 0.0672618 0)
(0.0526895 0.0670605 0)
(0.0527167 0.0668575 0)
(0.0527621 0.0666505 0)
(0.0528261 0.0664373 0)
(0.0529091 0.0662155 0)
(0.053012 0.0659829 0)
(0.0531357 0.0657369 0)
(0.0532812 0.0654748 0)
(0.0534498 0.0651938 0)
(0.053643 0.0648909 0)
(0.0538624 0.0645628 0)
(0.0541101 0.0642056 0)
(0.0543882 0.0638152 0)
(0.0546989 0.0633871 0)
(0.0550448 0.062916 0)
(0.0554286 0.0623961 0)
(0.0558529 0.0618208 0)
(0.0563207 0.0611828 0)
(0.0568348 0.0604735 0)
(0.0573979 0.0596834 0)
(0.0580124 0.0588013 0)
(0.0586803 0.0578148 0)
(0.0594024 0.0567092 0)
(0.0601781 0.0554683 0)
(0.0610047 0.0540733 0)
(0.0618762 0.0525034 0)
(0.0627822 0.0507355 0)
(0.0637067 0.0487452 0)
(0.0646257 0.0465074 0)
(0.0655057 0.043998 0)
(0.0663004 0.0411975 0)
(0.0669525 0.0380945 0)
(0.0673813 0.0346954 0)
(0.0675124 0.0310239 0)
(0.0670992 0.0271704 0)
(0.0501714 0.00361739 0)
(0.0509821 0.00976736 0)
(0.0526805 0.0145946 0)
(0.0548202 0.0179507 0)
(0.0570087 0.0202717 0)
(0.0588759 0.0236136 0)
(0.0599378 0.0312626 0)
(0.0597219 0.0451565 0)
(0.0580736 0.0634363 0)
(0.055532 0.0809748 0)
(0.0535075 0.0925624 0)
(0.0532298 0.0958265 0)
(0.0540684 0.0958725 0)
(0.0550458 0.09465 0)
(0.0560753 0.0928126 0)
(0.0570137 0.0907483 0)
(0.0576898 0.0886383 0)
(0.0580644 0.0865773 0)
(0.0581808 0.0846151 0)
(0.0581 0.0827819 0)
(0.0578786 0.0810997 0)
(0.0575638 0.0795794 0)
(0.0571929 0.0782191 0)
(0.0567937 0.0770081 0)
(0.0563863 0.0759321 0)
(0.0559843 0.074976 0)
(0.0555968 0.0741258 0)
(0.0552296 0.0733685 0)
(0.054886 0.0726925 0)
(0.054568 0.0720876 0)
(0.0542761 0.0715446 0)
(0.0540104 0.0710555 0)
(0.0537701 0.0706131 0)
(0.0535543 0.0702114 0)
(0.0533619 0.0698448 0)
(0.0531918 0.0695087 0)
(0.053043 0.0691986 0)
(0.0529143 0.0689109 0)
(0.0528049 0.068642 0)
(0.0527138 0.0683887 0)
(0.0526404 0.0681482 0)
(0.052584 0.0679178 0)
(0.0525442 0.0676949 0)
(0.0525207 0.067477 0)
(0.0525133 0.0672618 0)
(0.052522 0.0670471 0)
(0.0525468 0.0668303 0)
(0.052588 0.0666094 0)
(0.0526458 0.0663818 0)
(0.0527209 0.0661453 0)
(0.0528138 0.0658972 0)
(0.0529253 0.0656351 0)
(0.0530564 0.065356 0)
(0.0532082 0.065057 0)
(0.0533819 0.0647348 0)
(0.053579 0.0643861 0)
(0.0538011 0.0640068 0)
(0.05405 0.0635928 0)
(0.0543276 0.0631392 0)
(0.054636 0.0626408 0)
(0.0549771 0.0620917 0)
(0.0553532 0.0614853 0)
(0.0557665 0.0608141 0)
(0.0562188 0.0600698 0)
(0.056712 0.0592431 0)
(0.0572474 0.0583232 0)
(0.0578256 0.0572983 0)
(0.0584461 0.056155 0)
(0.0591069 0.0548782 0)
(0.0598037 0.0534514 0)
(0.0605294 0.0518568 0)
(0.0612726 0.0500753 0)
(0.0620168 0.0480873 0)
(0.0627389 0.0458743 0)
(0.0634084 0.04342 0)
(0.0639844 0.0407134 0)
(0.0644197 0.0377524 0)
(0.0646473 0.0345501 0)
(0.0646176 0.031135 0)
(0.0641025 0.0275841 0)
(0.0501472 0.00323687 0)
(0.0508381 0.00877662 0)
(0.0522562 0.0132102 0)
(0.0540039 0.0164047 0)
(0.0557382 0.0188174 0)
(0.0571332 0.0225951 0)
(0.057777 0.0310898 0)
(0.0573101 0.0460466 0)
(0.0556852 0.0651002 0)
(0.0534622 0.0826253 0)
(0.0520027 0.0931956 0)
(0.0521114 0.095416 0)
(0.0529806 0.0952083 0)
(0.0538775 0.0938728 0)
(0.0547751 0.0920762 0)
(0.055574 0.0901523 0)
(0.056168 0.0882345 0)
(0.0565408 0.0863655 0)
(0.0567184 0.0845651 0)
(0.0567354 0.0828567 0)
(0.0566284 0.0812648 0)
(0.0564318 0.079805 0)
(0.0561752 0.0784814 0)
(0.0558827 0.0772889 0)
(0.0555724 0.0762182 0)
(0.0552576 0.0752583 0)
(0.0549476 0.0743981 0)
(0.0546489 0.0736268 0)
(0.0543657 0.0729344 0)
(0.0541005 0.0723117 0)
(0.053855 0.0717503 0)
(0.0536297 0.0712428 0)
(0.0534246 0.0707825 0)
(0.0532395 0.0703633 0)
(0.0530737 0.06998 0)
(0.0529265 0.0696278 0)
(0.0527974 0.0693025 0)
(0.0526855 0.0690001 0)
(0.0525901 0.0687172 0)
(0.0525106 0.0684505 0)
(0.0524464 0.068197 0)
(0.0523972 0.0679539 0)
(0.0523626 0.0677185 0)
(0.0523422 0.0674885 0)
(0.0523361 0.0672612 0)
(0.0523441 0.0670342 0)
(0.0523663 0.0668052 0)
(0.052403 0.0665718 0)
(0.0524545 0.0663315 0)
(0.0525211 0.0660817 0)
(0.0526035 0.0658199 0)
(0.0527023 0.0655434 0)
(0.0528183 0.0652491 0)
(0.0529524 0.0649341 0)
(0.0531057 0.064595 0)
(0.0532794 0.0642281 0)
(0.0534749 0.0638295 0)
(0.0536934 0.0633948 0)
(0.0539366 0.0629191 0)
(0.054206 0.0623972 0)
(0.0545032 0.0618231 0)
(0.0548298 0.0611903 0)
(0.0551872 0.0604913 0)
(0.0555767 0.059718 0)
(0.0559992 0.0588614 0)
(0.0564551 0.0579113 0)
(0.056944 0.0568566 0)
(0.0574644 0.0556849 0)
(0.0580131 0.0543827 0)
(0.0585852 0.0529356 0)
(0.0591725 0.0513282 0)
(0.0597636 0.0495451 0)
(0.0603426 0.047571 0)
(0.060888 0.0453925 0)
(0.0613727 0.0429993 0)
(0.0617615 0.0403867 0)
(0.0620166 0.0375585 0)
(0.0620823 0.0345317 0)
(0.0619281 0.0313356 0)
(0.0613397 0.0280369 0)
(0.0501259 0.00291175 0)
(0.0507113 0.00794649 0)
(0.0518855 0.0120736 0)
(0.053297 0.0151678 0)
(0.0546483 0.0177034 0)
(0.0556543 0.0219018 0)
(0.0559655 0.0311509 0)
(0.0553144 0.0469942 0)
(0.053732 0.0666159 0)
(0.0517791 0.0839867 0)
(0.0507294 0.0934781 0)
(0.0510609 0.094957 0)
(0.0518982 0.0945529 0)
(0.0527181 0.0931749 0)
(0.0535172 0.0914332 0)
(0.0542206 0.0896292 0)
(0.0547609 0.0878584 0)
(0.055135 0.0861338 0)
(0.0553588 0.0844602 0)
(0.0554517 0.0828561 0)
(0.055437 0.0813452 0)
(0.0553393 0.0799445 0)
(0.0551818 0.0786605 0)
(0.0549841 0.0774921 0)
(0.0547623 0.0764334 0)
(0.0545285 0.0754768 0)
(0.0542918 0.0746134 0)
(0.0540587 0.0738345 0)
(0.053834 0.0731316 0)
(0.0536208 0.0724964 0)
(0.0534211 0.0719215 0)
(0.0532361 0.0713999 0)
(0.0530664 0.0709254 0)
(0.0529123 0.0704922 0)
(0.0527734 0.0700952 0)
(0.0526497 0.0697297 0)
(0.0525407 0.0693916 0)
(0.052446 0.0690768 0)
(0.052365 0.0687819 0)
(0.0522975 0.0685037 0)
(0.0522429 0.0682389 0)
(0.0522011 0.0679849 0)
(0.0521717 0.0677389 0)
(0.0521546 0.0674982 0)
(0.0521497 0.0672603 0)
(0.052157 0.0670228 0)
(0.0521766 0.0667831 0)
(0.0522086 0.0665388 0)
(0.0522534 0.0662873 0)
(0.0523113 0.066026 0)
(0.0523827 0.0657523 0)
(0.0524683 0.0654632 0)
(0.0525685 0.0651558 0)
(0.0526844 0.064827 0)
(0.0528165 0.0644732 0)
(0.052966 0.0640907 0)
(0.0531338 0.0636756 0)
(0.053321 0.0632233 0)
(0.0535288 0.0627291 0)
(0.0537583 0.0621875 0)
(0.0540106 0.0615926 0)
(0.0542867 0.060938 0)
(0.0545875 0.0602165 0)
(0.0549136 0.0594201 0)
(0.0552652 0.0585402 0)
(0.0556419 0.0575671 0)
(0.0560426 0.0564905 0)
(0.0564649 0.055299 0)
(0.0569052 0.0539807 0)
(0.0573576 0.0525229 0)
(0.0578142 0.0509127 0)
(0.0582637 0.0491374 0)
(0.0586912 0.0471856 0)
(0.0590776 0.0450477 0)
(0.0593994 0.0427179 0)
(0.059627 0.040196 0)
(0.0597305 0.0374895 0)
(0.0596638 0.034617 0)
(0.0594112 0.0316068 0)
(0.0587687 0.0285181 0)
(0.050107 0.00263562 0)
(0.050599 0.00725646 0)
(0.0515616 0.0111502 0)
(0.0526868 0.0141931 0)
(0.0537173 0.0168731 0)
(0.0544023 0.0214732 0)
(0.0544434 0.0313947 0)
(0.053646 0.0479786 0)
(0.0520983 0.06801 0)
(0.0503559 0.0851293 0)
(0.0495966 0.0935256 0)
(0.0500565 0.0944887 0)
(0.0508376 0.0939398 0)
(0.0515817 0.0925434 0)
(0.0523027 0.0908609 0)
(0.0529372 0.0891564 0)
(0.0534425 0.0874983 0)
(0.0538214 0.0858841 0)
(0.0540831 0.0843114 0)
(0.0542376 0.0827949 0)
(0.0542994 0.0813559 0)
(0.054286 0.0800106 0)
(0.0542149 0.078767 0)
(0.0541019 0.0776258 0)
(0.0539606 0.0765838 0)
(0.0538019 0.0756357 0)
(0.053634 0.0747747 0)
(0.0534636 0.0739936 0)
(0.0532952 0.0732852 0)
(0.0531325 0.0726424 0)
(0.0529778 0.0720584 0)
(0.0528328 0.0715268 0)
(0.0526984 0.0710417 0)
(0.0525752 0.0705978 0)
(0.0524636 0.0701901 0)
(0.0523635 0.0698141 0)
(0.0522749 0.0694656 0)
(0.0521976 0.0691407 0)
(0.0521314 0.068836 0)
(0.052076 0.0685481 0)
(0.0520313 0.0682741 0)
(0.051997 0.0680108 0)
(0.051973 0.0677557 0)
(0.0519592 0.0675061 0)
(0.0519555 0.0672593 0)
(0.0519621 0.0670127 0)
(0.0519789 0.0667639 0)
(0.0520061 0.0665104 0)
(0.052044 0.0662494 0)
(0.0520928 0.0659783 0)
(0.0521529 0.0656944 0)
(0.0522247 0.0653948 0)
(0.0523088 0.0650763 0)
(0.0524058 0.0647358 0)
(0.0525162 0.0643698 0)
(0.0526408 0.0639744 0)
(0.0527803 0.0635456 0)
(0.0529355 0.0630789 0)
(0.0531071 0.0625694 0)
(0.053296 0.0620119 0)
(0.0535027 0.0614005 0)
(0.0537278 0.0607288 0)
(0.0539717 0.0599898 0)
(0.0542343 0.0591759 0)
(0.0545153 0.0582788 0)
(0.0548137 0.0572894 0)
(0.0551277 0.0561981 0)
(0.0554545 0.0549946 0)
(0.0557899 0.0536681 0)
(0.0561282 0.0522077 0)
(0.0564613 0.0506026 0)
(0.0567788 0.0488424 0)
(0.0570672 0.0469185 0)
(0.0573099 0.0448245 0)
(0.057487 0.0425578 0)
(0.0575741 0.0401211 0)
(0.0575482 0.037524 0)
(0.0573711 0.0347857 0)
(0.0570389 0.0319328 0)
(0.0563546 0.0290182 0)
(0.0500901 0.00240299 0)
(0.0504996 0.00668852 0)
(0.0512792 0.0104095 0)
(0.0521614 0.0134398 0)
(0.0529235 0.0162794 0)
(0.0533411 0.0212632 0)
(0.053155 0.0317893 0)
(0.0522282 0.048998 0)
(0.0506927 0.0693182 0)
(0.049102 0.0861122 0)
(0.048545 0.0934216 0)
(0.0490724 0.0940324 0)
(0.0497899 0.0933703 0)
(0.0504661 0.0919689 0)
(0.0511244 0.0903418 0)
(0.0517096 0.0887178 0)
(0.0521937 0.0871466 0)
(0.052581 0.085618 0)
(0.0528761 0.0841262 0)
(0.053083 0.0826831 0)
(0.0532103 0.0813072 0)
(0.05327 0.0800132 0)
(0.0532752 0.078809 0)
(0.0532384 0.0776966 0)
(0.0531707 0.0766745 0)
(0.0530815 0.075739 0)
(0.0529783 0.0748848 0)
(0.0528673 0.0741062 0)