/*--------------------------------*- C++ -*----------------------------------*\
| =========                 |                                                 |
| \\      /  F ield         | OpenFOAM: The Open Source CFD Toolbox           |
|  \\    /   O peration     | Version:  com                                   |
|   \\  /    A nd           | Website:  www.openfoam.com                      |
|    \\/     M anipulation  |                                                 |
\*---------------------------------------------------------------------------*/
FoamFile
{
    version     2.0;
    format      ascii;
    arch        "LSB;label=32;scalar=64";
    class       volScalarField;
    location    "0";
    object      wallDistance;
}
// * * * * * * * * * * * * * * * * * * * * * * * * * * * * * * * * * * * * * //

dimensions      [0 1 0 0 0 0 0];

internalField   nonuniform List<scalar> 
12225
(
0.00015942
0.00015942
0.00015942
0.00015942
0.00015942
0.00015942
0.00015942
0.00015942
0.00015942
0.00015942
0.00015942
0.00015942
0.00015942
0.00015942
0.00015942
0.00015942
0.00015942
0.00015942
0.000489703
0.000489703
0.000489703
0.000489703
0.000489703
0.000489703
0.000489703
0.000489703
0.000489703
0.000489703
0.000489703
0.000489703
0.000489703
0.000489703
0.000489703
0.000489703
0.000489703
0.000489703
0.000843691
0.000843691
0.000843691
0.000843691
0.000843691
0.000843691
0.000843691
0.000843691
0.000843691
0.000843691
0.000843691
0.000843691
0.000843691
0.000843691
0.000843691
0.000843691
0.000843691
0.000843691
0.00122309
0.00122309
0.00122309
0.00122309
0.00122309
0.00122309
0.00122309
0.00122309
0.00122309
0.00122309
0.00122309
0.00122309
0.00122309
0.00122309
0.00122309
0.00122309
0.00122309
0.00122309
0.00162971
0.00162971
0.00162971
0.00162971
0.00162971
0.00162971
0.00162971
0.00162971
0.00162971
0.00162971
0.00162971
0.00162971
0.00162971
0.00162971
0.00162971
0.00162971
0.00162971
0.00162971
0.00206552
0.00206552
0.00206552
0.00206552
0.00206552
0.00206552
0.00206552
0.00206552
0.00206552
0.00206552
0.00206552
0.00206552
0.00206552
0.00206552
0.00206552
0.00206552
0.00206552
0.00206552
0.00253261
0.00253261
0.00253261
0.00253261
0.00253261
0.00253261
0.00253261
0.00253261
0.00253261
0.00253261
0.00253261
0.00253261
0.00253261
0.00253261
0.00253261
0.00253261
0.00253261
0.00253261
0.00303323
0.00303323
0.00303323
0.00303323
0.00303323
0.00303323
0.00303323
0.00303323
0.00303323
0.00303323
0.00303323
0.00303323
0.00303323
0.00303323
0.00303323
0.00303323
0.00303323
0.00303323
0.00356977
0.00356977
0.00356977
0.00356977
0.00356977
0.00356977
0.00356977
0.00356977
0.00356977
0.00356977
0.00356977
0.00356977
0.00356977
0.00356977
0.00356977
0.00356977
0.00356977
0.00356977
0.00414483
0.00414483
0.00414483
0.00414483
0.00414483
0.00414483
0.00414483
0.00414483
0.00414483
0.00414483
0.00414483
0.00414483
0.00414483
0.00414483
0.00414483
0.00414483
0.00414483
0.00414483
0.00476116
0.00476116
0.00476116
0.00476116
0.00476116
0.00476116
0.00476116
0.00476116
0.00476116
0.00476116
0.00476116
0.00476116
0.00476116
0.00476116
0.00476116
0.00476116
0.00476116
0.00476116
0.00536704
0.00536704
0.00536704
0.00536704
0.00536704
0.00536704
0.00536704
0.00536704
0.00536704
0.00536704
0.00536704
0.00536704
0.00536704
0.00536704
0.00536704
0.00536704
0.00536704
0.00536704
0.00600399
0.00600399
0.00600399
0.00600399
0.00600399
0.00600399
0.00600399
0.00600399
0.00600399
0.00600399
0.00600399
0.00600399
0.00600399
0.00600399
0.00600399
0.00600399
0.00600399
0.00600399
0.00678044
0.00678044
0.00678044
0.00678044
0.00678044
0.00678044
0.00678044
0.00678044
0.00678044
0.00678044
0.00678044
0.00678044
0.00678044
0.00678044
0.00678044
0.00678044
0.00678044
0.00678044
0.00772694
0.00772694
0.00772694
0.00772694
0.00772694
0.00772694
0.00772694
0.00772694
0.00772694
0.00772694
0.00772694
0.00772694
0.00772694
0.00772694
0.00772694
0.00772694
0.00772694
0.00772694
0.00888075
0.00888075
0.00888075
0.00888075
0.00888075
0.00888075
0.00888075
0.00888075
0.00888075
0.00888075
0.00888075
0.00888075
0.00888075
0.00888075
0.00888075
0.00888075
0.00888075
0.00888075
0.0102872
0.0102872
0.0102872
0.0102872
0.0102872
0.0102872
0.0102872
0.0102872
0.0102872
0.0102872
0.0102872
0.0102872
0.0102872
0.0102872
0.0102872
0.0102872
0.0102872
0.0102872
0.0120018
0.0120018
0.0120018
0.0120018
0.0120018
0.0120018
0.0120018
0.0120018
0.0120018
0.0120018
0.0120018
0.0120018
0.0120018
0.0120018
0.0120018
0.0120018
0.0120018
0.0120018
0.0113082
0.0113082
0.0113082
0.0113082
0.0113082
0.0113082
0.0113082
0.0113082
0.0113082
0.0113082
0.0113082
0.0113082
0.0113082
0.0113082
0.0113082
0.0113082
0.0113082
0.0113082
0.00931946
0.00931946
0.00931946
0.00931946
0.00931946
0.00931946
0.00931946
0.00931946
0.00931946
0.00931946
0.00931946
0.00931946
0.00931946
0.00931946
0.00931946
0.00931946
0.00931946
0.00931946
0.0077472
0.0077472
0.0077472
0.0077472
0.0077472
0.0077472
0.0077472
0.0077472
0.0077472
0.0077472
0.0077472
0.0077472
0.0077472
0.0077472
0.0077472
0.0077472
0.0077472
0.0077472
0.00637847
0.00637847
0.00637847
0.00637847
0.00637847
0.00637847
0.00637847
0.00637847
0.00637847
0.00637847
0.00637847
0.00637847
0.00637847
0.00637847
0.00637847
0.00637847
0.00637847
0.00637847
0.00518691
0.00518691
0.00518691
0.00518691
0.00518691
0.00518691
0.00518691
0.00518691
0.00518691
0.00518691
0.00518691
0.00518691
0.00518691
0.00518691
0.00518691
0.00518691
0.00518691
0.00518691
0.00414961
0.00414961
0.00414961
0.00414961
0.00414961
0.00414961
0.00414961
0.00414961
0.00414961
0.00414961
0.00414961
0.00414961
0.00414961
0.00414961
0.00414961
0.00414961
0.00414961
0.00414961
0.00324658
0.00324658
0.00324658
0.00324658
0.00324658
0.00324658
0.00324658
0.00324658
0.00324658
0.00324658
0.00324658
0.00324658
0.00324658
0.00324658
0.00324658
0.00324658
0.00324658
0.00324658
0.00246045
0.00246045
0.00246045
0.00246045
0.00246045
0.00246045
0.00246045
0.00246045
0.00246045
0.00246045
0.00246045
0.00246045
0.00246045
0.00246045
0.00246045
0.00246045
0.00246045
0.00246045
0.00177608
0.00177608
0.00177608
0.00177608
0.00177608
0.00177608
0.00177608
0.00177608
0.00177608
0.00177608
0.00177608
0.00177608
0.00177608
0.00177608
0.00177608
0.00177608
0.00177608
0.00177608
0.0011803
0.0011803
0.0011803
0.0011803
0.0011803
0.0011803
0.0011803
0.0011803
0.0011803
0.0011803
0.0011803
0.0011803
0.0011803
0.0011803
0.0011803
0.0011803
0.0011803
0.0011803
0.000661648
0.000661648
0.000661648
0.000661648
0.000661648
0.000661648
0.000661648
0.000661648
0.000661648
0.000661648
0.000661648
0.000661648
0.000661648
0.000661648
0.000661648
0.000661648
0.000661648
0.000661648
0.000210134
0.000210134
0.000210134
0.000210134
0.000210134
0.000210134
0.000210134
0.000210134
0.000210134
0.000210134
0.000210134
0.000210134
0.000210134
0.000210134
0.000210134
0.000210134
0.000210134
0.000210134
0.000264175
0.000564082
0.000563837
0.000563591
0.000563343
0.000563094
0.000562842
0.000562588
0.000562332
0.000562075
0.000561815
0.000561553
0.000561289
0.000561024
0.000560756
0.000560486
0.000560214
0.000559939
0.000559663
0.000559385
0.000559104
0.000558821
0.000558536
0.000558249
0.000557959
0.000557668
0.000557374
0.000557077
0.000556779
0.000556478
0.000556175
0.000555869
0.000555561
0.000555251
0.000554938
0.000554623
0.000554305
0.000553985
0.000553662
0.000553337
0.00055301
0.000552679
0.000552347
0.000552011
0.000551673
0.000551333
0.00055099
0.000550644
0.000550295
0.000549944
0.00054959
0.000549233
0.000548873
0.000548511
0.000548146
0.000547778
0.000547407
0.000547033
0.000546656
0.000546277
0.000545894
0.000545509
0.00054512
0.000544729
0.000544334
0.000543937
0.000543536
0.000543132
0.000542725
0.000542315
0.000541901
0.000541485
0.000541065
0.000540642
0.000540216
0.000539786
0.000539353
0.000538917
0.000538477
0.000538034
0.000537587
0.000537137
0.000536683
0.000536226
0.000535765
0.000535301
0.000534833
0.000534362
0.000533887
0.000533408
0.000532925
0.000532439
0.000531949
0.000531455
0.000530957
0.000530455
0.00052995
0.00052944
0.000528927
0.000528409
0.000527888
0.000527362
0.000526833
0.000526299
0.000525761
0.000525219
0.000524673
0.000524122
0.000523568
0.000523008
0.000522445
0.000521877
0.000521305
0.000520728
0.000520147
0.000519561
0.000518971
0.000518376
0.000517777
0.000517173
0.000516564
0.00051595
0.000515332
0.000514709
0.000514081
0.000513448
0.00051281
0.000512167
0.00051152
0.000510867
0.000510209
0.000509546
0.000508878
0.000508205
0.000507526
0.000506842
0.000506153
0.000505459
0.000504759
0.000504053
0.000503343
0.000502626
0.000501904
0.000501177
0.000500444
0.000499705
0.00049896
0.00049821
0.000497453
0.000496691
0.000495923
0.000495149
0.000494369
0.000493583
0.000492791
0.000491992
0.000491188
0.000490377
0.00048956
0.000488736
0.000487906
0.00048707
0.000486227
0.000485378
0.000484522
0.000483659
0.00048279
0.000481914
0.000481031
0.000480141
0.000479244
0.00047834
0.00047743
0.000476512
0.000475587
0.000474655
0.000473715
0.000472769
0.000471815
0.000470853
0.000264175
0.000794617
0.00132918
0.00169077
0.00169003
0.00168928
0.00168853
0.00168776
0.001687
0.00168622
0.00168544
0.00168466
0.00168387
0.00168307
0.00168227
0.00168146
0.00168064
0.00167982
0.00167899
0.00167815
0.00167731
0.00167646
0.00167561
0.00167475
0.00167388
0.001673
0.00167212
0.00167123
0.00167034
0.00166943
0.00166852
0.00166761
0.00166668
0.00166575
0.00166481
0.00166387
0.00166292
0.00166196
0.00166099
0.00166001
0.00165903
0.00165804
0.00165704
0.00165603
0.00165502
0.001654
0.00165297
0.00165193
0.00165089
0.00164983
0.00164877
0.0016477
0.00164662
0.00164553
0.00164444
0.00164333
0.00164222
0.0016411
0.00163997
0.00163883
0.00163768
0.00163653
0.00163536
0.00163419
0.001633
0.00163181
0.00163061
0.0016294
0.00162817
0.00162694
0.0016257
0.00162445
0.0016232
0.00162193
0.00162065
0.00161936
0.00161806
0.00161675
0.00161543
0.0016141
0.00161276
0.00161141
0.00161005
0.00160868
0.0016073
0.0016059
0.0016045
0.00160309
0.00160166
0.00160022
0.00159878
0.00159732
0.00159585
0.00159436
0.00159287
0.00159137
0.00158985
0.00158832
0.00158678
0.00158523
0.00158366
0.00158209
0.0015805
0.0015789
0.00157728
0.00157566
0.00157402
0.00157237
0.0015707
0.00156903
0.00156733
0.00156563
0.00156391
0.00156218
0.00156044
0.00155868
0.00155691
0.00155513
0.00155333
0.00155152
0.00154969
0.00154785
0.001546
0.00154413
0.00154224
0.00154034
0.00153843
0.0015365
0.00153456
0.0015326
0.00153063
0.00152864
0.00152663
0.00152461
0.00152258
0.00152053
0.00151846
0.00151638
0.00151428
0.00151216
0.00151003
0.00150788
0.00150571
0.00150353
0.00150133
0.00149911
0.00149688
0.00149463
0.00149236
0.00149007
0.00148777
0.00148545
0.00148311
0.00148075
0.00147837
0.00147598
0.00147356
0.00147113
0.00146868
0.00146621
0.00146372
0.00146121
0.00145868
0.00145613
0.00145357
0.00145098
0.00144837
0.00144574
0.00144309
0.00144042
0.00143773
0.00143502
0.00143229
0.00142954
0.00142676
0.00142396
0.00142115
0.00141831
0.00141544
0.00141256
0.000264175
0.000794618
0.00132918
0.00186791
0.00241082
0.00281547
0.00281421
0.00281294
0.00281166
0.00281037
0.00280907
0.00280777
0.00280645
0.00280512
0.00280378
0.00280243
0.00280107
0.0027997
0.00279832
0.00279692
0.00279552
0.00279411
0.00279268
0.00279124
0.0027898
0.00278834
0.00278687
0.00278539
0.00278389
0.00278239
0.00278087
0.00277935
0.00277781
0.00277625
0.00277469
0.00277311
0.00277153
0.00276993
0.00276831
0.00276669
0.00276505
0.0027634
0.00276173
0.00276006
0.00275837
0.00275666
0.00275495
0.00275322
0.00275148
0.00274972
0.00274795
0.00274616
0.00274437
0.00274255
0.00274073
0.00273889
0.00273703
0.00273517
0.00273328
0.00273138
0.00272947
0.00272754
0.0027256
0.00272364
0.00272167
0.00271968
0.00271768
0.00271566
0.00271362
0.00271157
0.00270951
0.00270742
0.00270533
0.00270321
0.00270108
0.00269893
0.00269676
0.00269458
0.00269238
0.00269017
0.00268793
0.00268568
0.00268342
0.00268113
0.00267883
0.00267651
0.00267417
0.00267181
0.00266943
0.00266704
0.00266463
0.00266219
0.00265974
0.00265727
0.00265478
0.00265228
0.00264975
0.0026472
0.00264463
0.00264205
0.00263944
0.00263681
0.00263416
0.0026315
0.00262881
0.0026261
0.00262336
0.00262061
0.00261784
0.00261504
0.00261222
0.00260939
0.00260652
0.00260364
0.00260074
0.00259781
0.00259486
0.00259188
0.00258888
0.00258586
0.00258282
0.00257975
0.00257666
0.00257354
0.0025704
0.00256724
0.00256405
0.00256084
0.0025576
0.00255433
0.00255105
0.00254773
0.00254439
0.00254102
0.00253763
0.00253421
0.00253077
0.00252729
0.00252379
0.00252027
0.00251671
0.00251313
0.00250952
0.00250588
0.00250222
0.00249852
0.0024948
0.00249105
0.00248727
0.00248346
0.00247962
0.00247575
0.00247185
0.00246792
0.00246395
0.00245996
0.00245594
0.00245189
0.0024478
0.00244368
0.00243953
0.00243535
0.00243114
0.00242689
0.00242261
0.0024183
0.00241395
0.00240957
0.00240515
0.0024007
0.00239622
0.0023917
0.00238715
0.00238256
0.00237793
0.00237327
0.00236858
0.00236384
0.00235907
0.00235427
0.000264175
0.00079462
0.00132919
0.00186791
0.00241082
0.00295796
0.00350934
0.00393812
0.00393633
0.00393452
0.0039327
0.00393087
0.00392903
0.00392716
0.00392529
0.0039234
0.0039215
0.00391958
0.00391764
0.00391569
0.00391373
0.00391175
0.00390975
0.00390774
0.00390572
0.00390367
0.00390162
0.00389954
0.00389745
0.00389535
0.00389322
0.00389108
0.00388893
0.00388676
0.00388457
0.00388236
0.00388014
0.0038779
0.00387564
0.00387336
0.00387107
0.00386876
0.00386643
0.00386408
0.00386171
0.00385933
0.00385693
0.00385451
0.00385207
0.00384961
0.00384713
0.00384463
0.00384211
0.00383958
0.00383702
0.00383444
0.00383185
0.00382923
0.0038266
0.00382394
0.00382126
0.00381856
0.00381584
0.0038131
0.00381034
0.00380756
0.00380475
0.00380192
0.00379907
0.0037962
0.00379331
0.00379039
0.00378746
0.00378449
0.00378151
0.0037785
0.00377547
0.00377242
0.00376934
0.00376624
0.00376311
0.00375996
0.00375678
0.00375358
0.00375036
0.00374711
0.00374383
0.00374053
0.00373721
0.00373385
0.00373048
0.00372707
0.00372364
0.00372018
0.0037167
0.00371319
0.00370965
0.00370608
0.00370249
0.00369887
0.00369522
0.00369154
0.00368783
0.00368409
0.00368033
0.00367653
0.00367271
0.00366886
0.00366497
0.00366106
0.00365711
0.00365314
0.00364913
0.0036451
0.00364103
0.00363693
0.0036328
0.00362863
0.00362444
0.00362021
0.00361595
0.00361165
0.00360732
0.00360296
0.00359857
0.00359414
0.00358967
0.00358517
0.00358064
0.00357607
0.00357146
0.00356682
0.00356215
0.00355743
0.00355268
0.0035479
0.00354307
0.00353821
0.00353331
0.00352837
0.0035234
0.00351838
0.00351333
0.00350824
0.00350311
0.00349793
0.00349272
0.00348747
0.00348217
0.00347684
0.00347146
0.00346604
0.00346058
0.00345508
0.00344954
0.00344395
0.00343831
0.00343264
0.00342692
0.00342115
0.00341535
0.00340949
0.00340359
0.00339764
0.00339165
0.00338561
0.00337953
0.0033734
0.00336721
0.00336099
0.00335471
0.00334838
0.00334201
0.00333558
0.00332911
0.00332258
0.00331601
0.00330938
0.0033027
0.00329597
0.000264175
0.000794623
0.00132919
0.00186792
0.00241083
0.00295797
0.00350936
0.00406503
0.00462503
0.00505867
0.00505633
0.00505398
0.0050516
0.00504921
0.0050468
0.00504437
0.00504192
0.00503945
0.00503697
0.00503446
0.00503194
0.00502939
0.00502683
0.00502424
0.00502163
0.00501901
0.00501636
0.0050137
0.00501101
0.0050083
0.00500557
0.00500282
0.00500005
0.00499726
0.00499444
0.00499161
0.00498875
0.00498587
0.00498296
0.00498004
0.00497709
0.00497412
0.00497112
0.0049681
0.00496506
0.004962
0.00495891
0.00495579
0.00495266
0.00494949
0.00494631
0.0049431
0.00493986
0.0049366
0.00493331
0.00493
0.00492666
0.0049233
0.00491991
0.00491649
0.00491305
0.00490958
0.00490608
0.00490256
0.00489901
0.00489543
0.00489182
0.00488819
0.00488452
0.00488083
0.00487711
0.00487336
0.00486959
0.00486578
0.00486194
0.00485807
0.00485418
0.00485025
0.00484629
0.0048423
0.00483828
0.00483423
0.00483015
0.00482604
0.00482189
0.00481771
0.0048135
0.00480926
0.00480498
0.00480067
0.00479633
0.00479195
0.00478754
0.00478309
0.00477861
0.0047741
0.00476955
0.00476496
0.00476034
0.00475568
0.00475099
0.00474626
0.00474149
0.00473669
0.00473185
0.00472697
0.00472206
0.0047171
0.00471211
0.00470708
0.004702
0.00469689
0.00469174
0.00468655
0.00468132
0.00467605
0.00467074
0.00466539
0.00465999
0.00465455
0.00464907
0.00464355
0.00463799
0.00463238
0.00462673
0.00462103
0.00461529
0.00460951
0.00460368
0.0045978
0.00459188
0.00458591
0.0045799
0.00457384
0.00456774
0.00456158
0.00455538
0.00454913
0.00454283
0.00453648
0.00453008
0.00452364
0.00451714
0.00451059
0.00450399
0.00449734
0.00449064
0.00448389
0.00447708
0.00447022
0.00446331
0.00445634
0.00444932
0.00444225
0.00443512
0.00442793
0.00442069
0.00441339
0.00440604
0.00439863
0.00439116
0.00438363
0.00437604
0.0043684
0.0043607
0.00435293
0.00434511
0.00433722
0.00432928
0.00432127
0.0043132
0.00430506
0.00429687
0.00428861
0.00428028
0.00427189
0.00426344
0.00425492
0.00424633
0.00423768
0.000264175
0.000794626
0.0013292
0.00186793
0.00241084
0.00295798
0.00350937
0.00406505
0.00462505
0.0051894
0.00575814
0.00617708
0.00617418
0.00617126
0.00616831
0.00616534
0.00616235
0.00615933
0.00615629
0.00615323
0.00615014
0.00614703
0.0061439
0.00614074
0.00613755
0.00613434
0.00613111
0.00612785
0.00612457
0.00612126
0.00611792
0.00611456
0.00611117
0.00610776
0.00610432
0.00610085
0.00609736
0.00609384
0.00609029
0.00608671
0.00608311
0.00607947
0.00607581
0.00607212
0.00606841
0.00606466
0.00606089
0.00605708
0.00605325
0.00604938
0.00604549
0.00604156
0.00603761
0.00603362
0.0060296
0.00602556
0.00602148
0.00601736
0.00601322
0.00600905
0.00600484
0.0060006
0.00599632
0.00599202
0.00598768
0.0059833
0.00597889
0.00597445
0.00596997
0.00596546
0.00596092
0.00595633
0.00595172
0.00594706
0.00594237
0.00593765
0.00593288
0.00592808
0.00592324
0.00591837
0.00591346
0.00590851
0.00590352
0.00589849
0.00589342
0.00588831
0.00588317
0.00587798
0.00587275
0.00586748
0.00586218
0.00585683
0.00585143
0.005846
0.00584053
0.00583501
0.00582945
0.00582384
0.00581819
0.0058125
0.00580677
0.00580099
0.00579516
0.00578929
0.00578337
0.00577741
0.0057714
0.00576535
0.00575924
0.00575309
0.00574689
0.00574065
0.00573435
0.00572801
0.00572162
0.00571517
0.00570868
0.00570214
0.00569554
0.0056889
0.0056822
0.00567545
0.00566865
0.0056618
0.00565489
0.00564793
0.00564091
0.00563384
0.00562672
0.00561954
0.0056123
0.00560501
0.00559766
0.00559025
0.00558279
0.00557527
0.00556768
0.00556005
0.00555235
0.00554459
0.00553677
0.00552889
0.00552095
0.00551295
0.00550488
0.00549675
0.00548856
0.00548031
0.00547199
0.0054636
0.00545516
0.00544664
0.00543806
0.00542941
0.0054207
0.00541192
0.00540307
0.00539415
0.00538516
0.0053761
0.00536697
0.00535777
0.0053485
0.00533916
0.00532974
0.00532025
0.00531069
0.00530105
0.00529134
0.00528155
0.00527168
0.00526174
0.00525173
0.00524163
0.00523146
0.0052212
0.00521087
0.00520046
0.00518996
0.00517938
0.000264175
0.00079463
0.0013292
0.00186793
0.00241085
0.00295799
0.00350939
0.00406507
0.00462507
0.00518943
0.00575817
0.00633133
0.00690895
0.00729331
0.00728982
0.00728631
0.00728278
0.00727921
0.00727562
0.007272
0.00726835
0.00726468
0.00726097
0.00725724
0.00725347
0.00724968
0.00724586
0.00724201
0.00723813
0.00723421
0.00723027
0.0072263
0.0072223
0.00721826
0.00721419
0.0072101
0.00720597
0.00720181
0.00719761
0.00719339
0.00718913
0.00718483
0.00718051
0.00717615
0.00717175
0.00716733
0.00716286
0.00715837
0.00715384
0.00714927
0.00714467
0.00714003
0.00713535
0.00713064
0.0071259
0.00712111
0.00711629
0.00711143
0.00710653
0.0071016
0.00709663
0.00709161
0.00708656
0.00708147
0.00707634
0.00707118
0.00706597
0.00706072
0.00705542
0.00705009
0.00704472
0.0070393
0.00703385
0.00702835
0.0070228
0.00701722
0.00701159
0.00700592
0.0070002
0.00699444
0.00698863
0.00698278
0.00697688
0.00697094
0.00696495
0.00695892
0.00695283
0.0069467
0.00694053
0.0069343
0.00692803
0.0069217
0.00691533
0.00690891
0.00690244
0.00689592
0.00688935
0.00688272
0.00687605
0.00686932
0.00686254
0.00685571
0.00684883
0.00684189
0.0068349
0.00682785
0.00682075
0.00681359
0.00680638
0.00679911
0.00679178
0.0067844
0.00677696
0.00676947
0.00676191
0.0067543
0.00674662
0.00673889
0.0067311
0.00672324
0.00671533
0.00670735
0.00669932
0.00669121
0.00668305
0.00667482
0.00666653
0.00665818
0.00664976
0.00664127
0.00663272
0.0066241
0.00661541
0.00660666
0.00659784
0.00658895
0.00657999
0.00657096
0.00656186
0.00655269
0.00654345
0.00653414
0.00652476
0.0065153
0.00650577
0.00649616
0.00648648
0.00647673
0.00646689
0.00645699
0.006447
0.00643694
0.0064268
0.00641658
0.00640628
0.0063959
0.00638544
0.0063749
0.00636428
0.00635357
0.00634278
0.00633191
0.00632095
0.00630991
0.00629878
0.00628757
0.00627627
0.00626488
0.0062534
0.00624183
0.00623017
0.00621842
0.00620659
0.00619465
0.00618263
0.00617051
0.0061583
0.00614599
0.00613359
0.00612109
0.000264175
0.000794634
0.00132921
0.00186795
0.00241087
0.00295801
0.00350941
0.00406509
0.0046251
0.00518946
0.0057582
0.00633137
0.00690899
0.00749111
0.00807775
0.00840729
0.0084032
0.00839909
0.00839495
0.00839077
0.00838656
0.00838232
0.00837804
0.00837373
0.00836939
0.00836502
0.00836061
0.00835616
0.00835168
0.00834717
0.00834262
0.00833804
0.00833342
0.00832876
0.00832407
0.00831934
0.00831458
0.00830978
0.00830494
0.00830006
0.00829515
0.00829019
0.0082852
0.00828017
0.0082751
0.00826999
0.00826484
0.00825965
0.00825443
0.00824916
0.00824385
0.00823849
0.0082331
0.00822766
0.00822219
0.00821667
0.0082111
0.0082055
0.00819985
0.00819415
0.00818842
0.00818263
0.0081768
0.00817093
0.00816501
0.00815905
0.00815304
0.00814698
0.00814087
0.00813472
0.00812852
0.00812227
0.00811598
0.00810963
0.00810323
0.00809679
0.00809029
0.00808375
0.00807715
0.0080705
0.0080638
0.00805705
0.00805025
0.00804339
0.00803648
0.00802952
0.0080225
0.00801543
0.0080083
0.00800112
0.00799388
0.00798658
0.00797923
0.00797182
0.00796435
0.00795683
0.00794925
0.0079416
0.0079339
0.00792614
0.00791832
0.00791044
0.00790249
0.00789449
0.00788642
0.00787829
0.00787009
0.00786183
0.00785351
0.00784513
0.00783667
0.00782816
0.00781957
0.00781092
0.00780221
0.00779342
0.00778457
0.00777564
0.00776665
0.00775759
0.00774846
0.00773925
0.00772998
0.00772063
0.00771121
0.00770172
0.00769215
0.00768251
0.0076728
0.007663
0.00765314
0.00764319
0.00763317
0.00762307
0.00761289
0.00760263
0.0075923
0.00758188
0.00757138
0.0075608
0.00755014
0.00753939
0.00752857
0.00751765
0.00750665
0.00749557
0.0074844
0.00747315
0.0074618
0.00745037
0.00743885
0.00742724
0.00741554
0.00740375
0.00739186
0.00737989
0.00736782
0.00735566
0.0073434
0.00733105
0.0073186
0.00730605
0.00729341
0.00728067
0.00726783
0.00725489
0.00724185
0.0072287
0.00721546
0.00720211
0.00718866
0.00717511
0.00716144
0.00714768
0.0071338
0.00711982
0.00710573
0.00709153
0.00707722
0.0070628
0.000264175
0.00079464
0.00132922
0.00186796
0.00241088
0.00295803
0.00350943
0.00406512
0.00462513
0.00518949
0.00575824
0.00633141
0.00690904
0.00749116
0.0080778
0.00866901
0.00926481
0.00951897
0.00951427
0.00950954
0.00950477
0.00949996
0.00949511
0.00949023
0.00948531
0.00948035
0.00947535
0.00947032
0.00946524
0.00946013
0.00945497
0.00944978
0.00944454
0.00943926
0.00943395
0.00942859
0.00942319
0.00941775
0.00941226
0.00940673
0.00940116
0.00939555
0.00938989
0.00938419
0.00937845
0.00937266
0.00936682
0.00936094
0.00935502
0.00934904
0.00934302
0.00933696
0.00933085
0.00932469
0.00931848
0.00931222
0.00930592
0.00929956
0.00929316
0.00928671
0.0092802
0.00927365
0.00926705
0.00926039
0.00925368
0.00924692
0.00924011
0.00923324
0.00922632
0.00921935
0.00921232
0.00920524
0.00919811
0.00919091
0.00918367
0.00917636
0.009169
0.00916158
0.00915411
0.00914657
0.00913898
0.00913133
0.00912362
0.00911584
0.00910801
0.00910012
0.00909217
0.00908415
0.00907607
0.00906793
0.00905973
0.00905146
0.00904313
0.00903473
0.00902627
0.00901774
0.00900914
0.00900048
0.00899175
0.00898296
0.00897409
0.00896516
0.00895616
0.00894708
0.00893794
0.00892872
0.00891944
0.00891008
0.00890065
0.00889114
0.00888156
0.00887191
0.00886218
0.00885238
0.0088425
0.00883254
0.00882251
0.0088124
0.00880221
0.00879193
0.00878158
0.00877115
0.00876064
0.00875005
0.00873937
0.00872862
0.00871777
0.00870685
0.00869583
0.00868474
0.00867355
0.00866228
0.00865093
0.00863948
0.00862794
0.00861632
0.0086046
0.0085928
0.0085809
0.00856891
0.00855682
0.00854465
0.00853237
0.00852001
0.00850754
0.00849498
0.00848232
0.00846956
0.00845671
0.00844375
0.0084307
0.00841754
0.00840428
0.00839091
0.00837744
0.00836387
0.00835019
0.00833641
0.00832252
0.00830852
0.00829441
0.00828019
0.00826586
0.00825142
0.00823687
0.0082222
0.00820743
0.00819253
0.00817752
0.00816239
0.00814715
0.00813179
0.0081163
0.0081007
0.00808498
0.00806913
0.00805316
0.00803707
0.00802085
0.0080045
0.000264175
0.000794646
0.00132923
0.00186797
0.0024109
0.00295805
0.00350946
0.00406515
0.00462516
0.00518953
0.00575828
0.00633146
0.00690909
0.00749122
0.00807786
0.00866907
0.00926488
0.00986532
0.0104704
0.0106283
0.010623
0.0106176
0.0106122
0.0106067
0.0106012
0.0105957
0.0105901
0.0105845
0.0105788
0.0105731
0.0105673
0.0105615
0.0105557
0.0105498
0.0105438
0.0105378
0.0105318
0.0105257
0.0105196
0.0105134
0.0105072
0.0105009
0.0104946
0.0104882
0.0104818
0.0104753
0.0104688
0.0104622
0.0104556
0.0104489
0.0104422
0.0104354
0.0104286
0.0104217
0.0104148
0.0104078
0.0104007
0.0103936
0.0103865
0.0103793
0.010372
0.0103647
0.0103573
0.0103498
0.0103423
0.0103348
0.0103272
0.0103195
0.0103118
0.010304
0.0102961
0.0102882
0.0102802
0.0102722
0.0102641
0.0102559
0.0102477
0.0102394
0.0102311
0.0102226
0.0102142
0.0102056
0.010197
0.0101883
0.0101795
0.0101707
0.0101618
0.0101529
0.0101438
0.0101347
0.0101256
0.0101163
0.010107
0.0100976
0.0100882
0.0100786
0.010069
0.0100594
0.0100496
0.0100398
0.0100299
0.0100199
0.0100098
0.00999968
0.00998946
0.00997916
0.00996878
0.00995832
0.00994778
0.00993716
0.00992645
0.00991567
0.00990479
0.00989384
0.00988279
0.00987167
0.00986045
0.00984915
0.00983776
0.00982628
0.00981471
0.00980305
0.00979131
0.00977947
0.00976754
0.00975551
0.00974339
0.00973118
0.00971887
0.00970647
0.00969397
0.00968138
0.00966868
0.00965589
0.009643
0.00963
0.00961691
0.00960371
0.00959042
0.00957702
0.00956351
0.0095499
0.00953618
0.00952236
0.00950843
0.00949439
0.00948024
0.00946598
0.00945162
0.00943713
0.00942254
0.00940784
0.00939301
0.00937808
0.00936303
0.00934786
0.00933257
0.00931716
0.00930164
0.00928599
0.00927022
0.00925433
0.00923832
0.00922218
0.00920591
0.00918952
0.009173
0.00915636
0.00913958
0.00912268
0.00910564
0.00908847
0.00907116
0.00905372
0.00903615
0.00901844
0.00900059
0.0089826
0.00896448
0.00894621
0.000264175
0.000794652
0.00132924
0.00186799
0.00241092
0.00295808
0.00350949
0.00406518
0.0046252
0.00518957
0.00575833
0.00633151
0.00690915
0.00749128
0.00807793
0.00866915
0.00926496
0.0098654
0.0104705
0.0110803
0.0117412
0.0117352
0.0117293
0.0117232
0.0117171
0.011711
0.0117048
0.0116986
0.0116924
0.011686
0.0116797
0.0116733
0.0116668
0.0116603
0.0116537
0.0116471
0.0116404
0.0116337
0.0116269
0.0116201
0.0116132
0.0116063
0.0115993
0.0115922
0.0115851
0.011578
0.0115708
0.0115635
0.0115562
0.0115488
0.0115414
0.0115339
0.0115263
0.0115187
0.0115111
0.0115033
0.0114955
0.0114877
0.0114798
0.0114718
0.0114638
0.0114557
0.0114475
0.0114393
0.011431
0.0114227
0.0114143
0.0114058
0.0113972
0.0113886
0.0113799
0.0113712
0.0113624
0.0113535
0.0113445
0.0113355
0.0113264
0.0113172
0.011308
0.0112987
0.0112893
0.0112799
0.0112703
0.0112607
0.0112511
0.0112413
0.0112315
0.0112216
0.0112116
0.0112016
0.0111914
0.0111812
0.0111709
0.0111605
0.0111501
0.0111396
0.0111289
0.0111182
0.0111075
0.0110966
0.0110856
0.0110746
0.0110635
0.0110523
0.011041
0.0110296
0.0110181
0.0110066
0.0109949
0.0109832
0.0109713
0.0109594
0.0109474
0.0109353
0.0109231
0.0109108
0.0108984
0.0108859
0.0108733
0.0108606
0.0108478
0.010835
0.010822
0.0108089
0.0107957
0.0107824
0.010769
0.0107555
0.0107419
0.0107282
0.0107144
0.0107005
0.0106864
0.0106723
0.010658
0.0106437
0.0106292
0.0106146
0.0105999
0.0105851
0.0105702
0.0105552
0.01054
0.0105247
0.0105093
0.0104938
0.0104782
0.0104624
0.0104465
0.0104305
0.0104144
0.0103981
0.0103818
0.0103652
0.0103486
0.0103318
0.0103149
0.0102979
0.0102808
0.0102635
0.010246
0.0102285
0.0102108
0.0101929
0.010175
0.0101568
0.0101386
0.0101202
0.0101016
0.010083
0.0100641
0.0100451
0.010026
0.0100067
0.00998732
0.00996775
0.00994802
0.00992814
0.00990811
0.00988792
0.000264175
0.00079466
0.00132925
0.00186801
0.00241094
0.00295811
0.00350952
0.00406522
0.00462524
0.00518962
0.00575838
0.00633157
0.00690921
0.00749135
0.00807801
0.00866923
0.00926504
0.00986549
0.0104706
0.0110804
0.011695
0.0123143
0.0128463
0.0128397
0.0128331
0.0128264
0.0128196
0.0128128
0.0128059
0.012799
0.012792
0.012785
0.0127779
0.0127708
0.0127636
0.0127563
0.012749
0.0127417
0.0127342
0.0127268
0.0127192
0.0127116
0.012704
0.0126963
0.0126885
0.0126807
0.0126728
0.0126648
0.0126568
0.0126487
0.0126406
0.0126324
0.0126241
0.0126158
0.0126074
0.0125989
0.0125904
0.0125818
0.0125731
0.0125644
0.0125556
0.0125467
0.0125378
0.0125288
0.0125197
0.0125105
0.0125013
0.012492
0.0124827
0.0124732
0.0124637
0.0124542
0.0124445
0.0124348
0.012425
0.0124151
0.0124051
0.0123951
0.012385
0.0123748
0.0123645
0.0123541
0.0123437
0.0123332
0.0123226
0.0123119
0.0123012
0.0122903
0.0122794
0.0122684
0.0122573
0.0122461
0.0122348
0.0122235
0.012212
0.0122005
0.0121888
0.0121771
0.0121653
0.0121534
0.0121414
0.0121293
0.0121172
0.0121049
0.0120925
0.01208
0.0120675
0.0120548
0.0120421
0.0120292
0.0120162
0.0120032
0.01199
0.0119767
0.0119634
0.0119499
0.0119363
0.0119227
0.0119089
0.011895
0.011881
0.0118669
0.0118526
0.0118383
0.0118239
0.0118093
0.0117946
0.0117799
0.011765
0.0117499
0.0117348
0.0117196
0.0117042
0.0116887
0.0116731
0.0116574
0.0116415
0.0116255
0.0116095
0.0115932
0.0115769
0.0115604
0.0115438
0.0115271
0.0115102
0.0114932
0.0114761
0.0114588
0.0114414
0.0114239
0.0114062
0.0113884
0.0113705
0.0113524
0.0113342
0.0113158
0.0112973
0.0112787
0.0112599
0.0112409
0.0112218
0.0112026
0.0111832
0.0111637