# vtk DataFile Version 2.0
sampleSurface
ASCII
DATASET POLYDATA
POINTS 317 double
1.99996 2.99951 0
1.99999 4 0
2 4 0.999992
1.99998 2.99961 0.999997
1.99996 2.99948 0.500005
2 4 1.99998
2 2.99979 1.99997
1.99999 2.99966 1.49998
2 4 2.99998
2 2.99991 2.99997
2 2.99984 2.49996
2 4 3.99998
2 2.99996 3.99998
2 2.99993 3.49997
2 0.999967 3.99996
2 1.49995 3.99996
2 1.99995 3.99997
2 1.99998 4.99998
2 0.999987 4.99998
2 0.999981 4.49997
2 2.49995 3.99997
2 2.99998 4.99998
2 4 4.99999
2 -4.51077e-06 4.99998
2 0.499991 4.99998
2 0.999993 5.99999
2 -2.78048e-06 5.99999
2 1.99999 5.99999
2 2.99999 5.99999
2 4 5.99999
2 0.999996 7
2 -1.69242e-06 7
2 2 7
2 3 7
2 4 7
2 0.999998 8
2 -1.20311e-06 8
2 2 8
2 3 8
2 4 8
2.24952 0.999075 0.250187
2.24938 0.999049 0
2.24957 1.24904 0
2.24965 1.24908 0.250124
2.49991 1.99949 0.500037
2.49987 1.99943 0
2.49993 2.49953 0
2.49994 2.49957 0.500013
2.49996 2.99965 0.500004
2.49995 2.99963 0
2.49998 2.99971 1
2.25001 1.24938 1.00023
2.25005 1.24949 1.25014
2.25014 0.999516 1.25022
2.2501 0.999384 1.00038
2.49999 1.9997 1.5
2.49996 1.99959 1.00004
2.49997 2.49965 1.00001
2.49998 2.49973 1.49999
2.49999 2.99977 1.49999
2.49999 2.99984 1.99998
2.5 1.99988 2.49997
2.49999 1.9998 1.99998
2.49999 2.49981 1.99998
2.5 2.49988 2.49997
2.5 2.99989 2.49998
2.5 2.99993 2.99998
2.5 0.499978 2.99997
2.5 0.499982 3.49997
2.5 -8.59996e-06 3.49997
2.5 -9.91893e-06 2.99997
2.5 0.249984 2.99997
2.5 0.99997 3.49997
2.5 0.999963 2.99997
2.5 1.24995 2.99997
2.5 1.49995 2.99997
2.5 1.49996 3.49997
2.5 1.99995 3.49997
2.5 2.49995 3.49998
2.5 2.49996 3.99998
2.5 1.99996 3.99998
2.5 2.99995 3.49998
2.5 2.99997 3.99998
2.5 -4.50074e-06 4.49998
2.5 -6.35985e-06 3.99998
2.5 0.499987 3.99998
2.5 0.499991 4.49998
2.5 0.999979 3.99998
2.5 1.49997 3.99997
2.5 0.999987 4.49998
2.5 0.999991 4.99999
2.5 -3.50814e-06 4.99999
2.5 0.499993 4.99999
2.24911 0.749231 0
2.24932 0.74919 0.250249
2.24914 0.74924 0.125126
2.24998 0.999245 0.75044
2.25024 0.749456 1.00056
2.25018 0.74937 0.875666
2.25005 0.749275 0.750651
2.25027 0.749609 1.25032
2.2503 0.749548 1.12547
2.25007 0.999734 1.74998
2.25004 0.999813 1.99994
2.25005 0.749873 1.99995
2.25008 0.749851 1.87496
2.25011 0.749806 1.74999
2.37457 0.374451 0.500282
2.37435 0.374566 0.375219
2.37447 0.499492 0.375252
2.37465 0.499429 0.500331
2.37375 0.125447 0
2.37384 0.125303 0.125076
2.37384 0.000459526 0.125076
2.37375 0.000608523 0
2.37418 0.499666 0.125086
2.37403 0.374846 0.125083
2.37395 0.374931 0
2.3741 0.499716 0
2.37412 -1.77004e-05 0.375132
2.37415 0.124838 0.375143
2.37436 0.124643 0.50016
2.3743 -0.000222642 0.500144
2.37483 0.499416 0.625401
2.37477 0.374404 0.625346
2.37525 0.374601 1.00046
2.37511 0.374514 0.875459
2.37511 0.499532 0.875468
2.37521 0.499613 1.00044
2.37459 0.124525 0.625202
2.37451 -0.000360048 0.62518
2.37526 0.499685 1.12537
2.37532 0.374676 1.12541
2.49979 1.49941 0
2.49987 1.49948 0.50009
2.49981 1.49944 0.250056
2.24981 1.49919 0.500152
2.24972 1.49911 0.250088
2.24968 1.49908 0
2.24992 1.24926 0.75027
2.49997 1.49961 1.00009
2.49993 1.49954 0.750114
2.2499 1.49928 0.750181
2.24997 1.49939 1.00015
2.25052 -0.000555019 1.00074
2.2506 0.124414 1.00081
2.25079 0.124497 1.12577
2.25075 -0.000520743 1.12572
2.25057 0.249382 1.00081
2.25072 0.249498 1.12575
2.25069 0.249593 1.25057
2.25075 0.124575 1.25059
2.25074 -0.00046519 1.25056
2.50001 1.49974 1.50002
2.5 1.49967 1.25007
2.25002 1.4996 1.50002
2.25001 1.49949 1.25009
2.25004 1.2497 1.74998
2.25002 1.24978 1.99994
2.50001 1.49984 1.99998
2.50001 1.4998 1.74999
2.25002 1.49969 1.74997
2.25001 1.49977 1.99995
2.25001 0.999872 2.24993
2.25002 0.749918 2.24994
2.25003 0.749906 2.12494
2.25 0.249976 2.99995
2.25 -1.53656e-05 2.99995
2.25 -1.77471e-05 2.74996
2.25 0.249973 2.74995
2.25 0.999932 2.74994
2.25 0.999943 2.99995
2.25 0.749954 2.99995
2.25 0.749949 2.74995
2.25001 1.24985 2.24993
2.5 1.49991 2.49997
2.5 1.49989 2.24997
2.25 1.49988 2.49994
2.25 1.49983 2.24994
2.25 1.24993 2.99995
2.25 1.24992 2.74994
2.5 1.49994 2.74997
2.5 1.99992 2.99997
2.25 1.49991 2.74994
2.25 1.49993 2.99995
2.24971 0.749167 0.500505
2.24949 0.749173 0.375396
2.24976 0.999133 0.500356
2.37471 0.624432 0.500343
2.37456 0.624457 0.375261
2.37449 0.749453 0.250172
2.37438 0.749478 0.125086
2.37434 0.749479 0
2.37461 0.749437 0.37526
2.37475 0.749431 0.500336
2.37424 0.624568 0
2.37431 0.624546 0.125086
2.25003 -0.000624708 0.875572
2.25016 0.124302 0.875646
2.25023 0.249236 0.87569
2.24956 -0.000693666 0.750369
2.24972 0.124164 0.7504
2.2499 0.749202 0.625633
2.37486 0.624442 0.625412
2.37508 0.749561 0.875426
2.37499 0.749498 0.750428
2.37514 0.749623 1.00038
2.37488 0.749453 0.625403
2.37517 0.624625 1.00041
2.37509 0.624554 0.875448
2.37518 0.749735 1.25023
2.37518 0.749686 1.12531
2.2502 0.74972 1.5001
2.25026 0.74968 1.37521
2.25011 0.999635 1.50007
2.37521 0.624691 1.12534
2.37517 0.749781 1.37515
2.25016 0.749776 1.62504
2.37424 0.249686 0.375174
2.37405 0.249888 0.250135
2.37417 0.374712 0.250154
2.3743 0.499582 0.250168
2.37446 0.249522 0.50021
2.37398 0.125077 0.250122
2.37391 0.250075 0.125079
2.37382 0.250195 0
2.37396 0.000228347 0.250117
2.37468 0.249437 0.625259
2.37494 0.374436 0.750411
2.37489 0.249449 0.750339
2.37498 0.499457 0.750451
2.37506 0.124559 0.87539
2.37509 0.249521 0.875425
2.37481 0.124508 0.750287
2.37528 0.249602 1.00047
2.37474 -0.000411875 0.750258
2.25049 0.374393 1.00078
2.25057 0.249672 1.37537
2.25061 0.124652 1.37539
2.25045 -0.000300378 1.50021
2.25061 -0.000386007 1.37537
2.25045 0.124726 1.50022
2.25042 0.249739 1.50021
2.2506 0.374513 1.12569
2.25058 0.374607 1.25051
2.25046 0.49962 1.25044
2.25047 0.499535 1.1256
2.37527 0.499743 1.25028
2.25049 0.374682 1.37533
2.25031 0.499745 1.50016
2.25037 0.374744 1.50019
2.25039 0.499689 1.37529
2.24979 1.24916 0.500225
2.25005 1.2496 1.50004
2.5 0.74997 2.99997
2.25 0.499966 2.99995
2.25031 0.124791 1.6251
2.25031 -0.000222606 1.6251
2.2503 0.249796 1.62509
2.2502 0.249844 1.75002
2.25021 0.124845 1.75003
2.25021 -0.000159257 1.75003
2.25 0.99991 2.49994
2.25001 0.749941 2.49995
2.25001 0.749938 2.37495
2.25001 -2.11633e-05 2.49996
2.25001 0.124974 2.49996
2.25001 0.249969 2.49996
2.25 0.499962 2.74995
2.25001 0.374963 2.49996
2.25001 0.499958 2.49995
2.25 1.24989 2.49994
2.37442 0.624501 0.250173
2.37499 0.624487 0.750448
2.37521 0.624744 1.25025
2.25035 0.624625 1.25037
2.25031 0.624689 1.37524
2.25025 0.62474 1.50013
2.3752 0.624788 1.37517
2.25012 0.249883 1.87498
2.25013 0.124888 1.87499
2.25008 -7.63873e-05 1.99997
2.25013 -0.000111169 1.87499
2.25008 0.12492 1.99997
2.25008 0.249914 1.99996
2.25018 0.37484 1.75001
2.25012 0.374877 1.87498
2.25006 0.499899 1.99995
2.25007 0.374907 1.99996
2.2501 0.49987 1.87497
2.25016 0.499834 1.75
2.25023 0.499793 1.62506
2.25026 0.374796 1.62508
2.25009 0.624862 1.87496
2.25013 0.624826 1.74999
2.25006 0.62489 1.99995
2.25019 0.624787 1.62505
2.5 2.49992 2.99997
2.25005 0.124943 2.12496
2.25005 -5.22042e-05 2.12496
2.25005 0.249937 2.12496
2.25003 0.249953 2.24996
2.25003 0.124959 2.24996
2.25003 -3.61363e-05 2.24996
2.25001 0.62495 2.49995
2.25004 0.499923 2.12495
2.25004 0.37493 2.12495
2.25002 0.374947 2.24995
2.25002 0.49994 2.24995
2.25002 0.249964 2.37496
2.25002 0.124969 2.37496
2.25002 -2.62739e-05 2.37496
2.25001 0.374958 2.37495
2.25001 0.499952 2.37495
2.25003 0.624915 2.12495
2.25002 0.624932 2.24995
2.25001 0.624945 2.37495

POLYGONS 271 1385
5 0 1 2 3 4
5 3 2 5 6 7
5 6 5 8 9 10
5 9 8 11 12 13
6 14 15 16 17 18 19
5 16 20 12 21 17
4 12 11 22 21
5 23 24 18 25 26
4 18 17 27 25
4 17 21 28 27
4 21 22 29 28
4 26 25 30 31
4 25 27 32 30
4 27 28 33 32
4 28 29 34 33
4 31 30 35 36
4 30 32 37 35
4 32 33 38 37
4 33 34 39 38
4 40 41 42 43
4 44 45 46 47
4 0 4 48 49
4 3 50 48 4
4 51 52 53 54
4 55 56 57 58
4 3 7 59 50
4 6 60 59 7
4 61 62 63 64
4 6 10 65 60
4 9 66 65 10
5 67 68 69 70 71
5 72 73 74 75 76
4 77 78 79 80
4 9 13 81 66
4 12 82 81 13
4 83 84 85 86
4 14 87 88 15
4 16 15 88 80
4 14 19 89 87
4 18 90 89 19
4 16 80 79 20
4 12 20 79 82
4 23 91 92 24
4 18 24 92 90
5 93 41 40 94 95
5 96 54 97 98 99
5 97 54 53 100 101
5 102 103 104 105 106
4 107 108 109 110
4 111 112 113 114
4 115 116 117 118
4 119 120 121 122
4 123 124 107 110
4 125 126 127 128
4 121 129 130 122
4 131 132 125 128
5 133 45 44 134 135
4 134 136 137 135
4 133 135 137 138
4 51 54 96 139
5 140 141 134 44 56
4 134 141 142 136
4 140 143 142 141
4 46 49 48 47
4 57 56 44 47
4 57 47 48 50
4 144 145 146 147
4 148 149 146 145
4 150 151 146 149
4 152 147 146 151
5 55 153 154 140 56
4 153 155 156 154
4 140 154 156 143
4 102 157 158 103
5 159 160 153 55 62
4 153 160 161 155
4 159 162 161 160
4 59 58 57 50
4 63 62 55 58
4 63 58 59 60
5 163 164 165 104 103
4 166 167 168 169
4 170 171 172 173
4 163 103 158 174
5 61 175 176 159 62
4 175 177 178 176
4 159 176 178 162
4 179 171 170 180
5 75 181 175 61 182
4 175 181 183 177
4 75 184 183 181
5 185 186 94 40 187
4 188 110 109 189
4 94 190 191 95
4 93 95 191 192
4 94 186 193 190
4 185 194 193 186
4 195 196 115 118
4 144 197 198 145
4 148 145 198 199
4 200 201 198 197
5 96 99 202 185 187
4 188 203 123 110
4 99 98 204 205
4 97 206 204 98
4 99 205 207 202
4 185 202 207 194
4 208 128 127 209
4 100 210 211 101
4 97 101 211 206
5 212 213 100 53 214
4 208 215 131 128
4 100 213 216 210
5 102 106 217 212 214
4 218 219 220 108
4 220 221 109 108
4 107 222 218 108
4 223 112 224 219
4 111 225 224 112
4 113 112 223 226
4 220 219 224 116
4 115 221 220 116
4 224 225 117 116
4 218 120 223 219
4 218 222 121 120
4 119 226 223 120
4 227 124 228 229
4 228 124 123 230
4 227 222 107 124
4 198 231 232 199
4 233 229 232 231
4 233 231 198 201
4 148 199 232 234
4 200 235 233 201
4 228 126 232 229
4 228 230 127 126
4 125 234 232 126
4 148 234 125 236
4 227 229 233 129
4 121 222 227 129
4 233 235 130 129
4 150 237 238 151
4 239 240 238 241
4 242 241 238 237
4 152 151 238 240
4 148 236 243 149
4 150 149 243 244
4 245 244 243 246
4 125 132 243 236
4 131 246 243 132
4 245 246 131 247
4 150 244 248 237
4 249 250 248 251
4 245 251 248 244
4 242 237 248 250
4 252 187 40 43
4 42 138 137 43
4 137 136 252 43
4 253 214 53 52
4 156 52 51 143
4 156 155 253 52
5 72 68 67 254 73
4 69 68 85 84
4 85 68 72 87
4 70 167 166 71
4 67 71 166 255
4 73 254 172 171
4 67 255 172 254
4 88 87 72 76
4 88 76 77 80
4 73 171 179 74
4 75 74 179 184
4 75 182 77 76
4 239 241 256 257
4 242 258 256 241
4 259 260 256 258
4 261 257 256 260
4 96 187 252 139
4 142 143 51 139
4 252 136 142 139
4 102 214 253 157
4 158 157 161 162
4 253 155 161 157
5 163 262 263 264 164
5 168 265 266 267 169
4 268 255 166 169
5 267 269 270 268 169
4 178 174 158 162
4 271 262 163 174
4 178 177 271 174
4 272 189 109 221
4 193 189 272 190
4 188 189 193 194
4 115 196 272 221
4 272 196 191 190
4 195 192 191 196
4 123 203 273 230
4 273 203 207 205
4 207 203 188 194
4 127 230 273 209
4 273 205 204 209
4 204 206 208 209
4 131 215 274 247
4 245 247 274 275
4 274 215 211 210
4 208 206 211 215
4 249 251 276 277
4 245 275 276 251
4 212 277 276 213
4 274 278 276 275
4 216 278 274 210
4 276 278 216 213
4 259 279 280 260
4 281 282 280 283
4 284 283 280 279
4 261 260 280 282
4 259 285 286 279
4 287 288 286 289
4 284 279 286 288
4 290 289 286 285
4 249 291 292 250
4 242 250 292 258
4 259 258 292 285
4 290 285 292 291
4 106 105 293 294
4 287 289 293 295
4 104 295 293 105
4 290 294 293 289
4 249 277 296 291
4 106 294 296 217
4 212 217 296 277
4 290 291 296 294
4 63 60 65 64
4 297 182 61 64
4 297 64 65 66
4 77 182 297 78
4 81 78 297 66
4 79 78 81 82
4 89 86 85 87
4 83 86 92 91
4 92 86 89 90
4 281 283 298 299
4 284 300 298 283
4 301 302 298 300
4 303 299 298 302
4 263 262 170 173
4 172 255 268 173
5 268 270 304 263 173
4 271 180 170 262
4 183 180 271 177
4 179 180 183 184
4 287 305 306 288
4 284 288 306 300
4 301 300 306 307
4 308 307 306 305
4 301 309 310 302
4 265 311 310 266
4 267 266 310 309
4 303 302 310 311
4 301 307 312 309
4 270 269 312 313
4 308 313 312 307
4 267 309 312 269
4 287 295 314 305
4 104 165 314 295
4 164 315 314 165
4 308 305 314 315
4 164 264 316 315
4 270 313 316 304
4 308 315 316 313
4 263 304 316 264
CELL_DATA 271
FIELD attributes 1
weightsSum 1 271 float
1 1 1 1 1 1 1 1 1 1
1 1 1 1 1 1 1 1 1 1
1 1 1 1 1 1 1 1 1 1
1 1 1 1 1 1 1 1 1 1
1 1 1 1 1 1 1 1 1 1
1 1 1 1 1 1 1 1 1 1
1 1 1 1 1 1 1 1 1 1
1 1 1 1 1 1 1 1 1 1
1 1 1 1 1 1 1 1 1 1
1 1 1 1 1 1 1 1 1 1
1 1 1 1 1 1 1 1 1 1
1 1 1 1 1 1 1 1 1 1
1 1 1 1 1 1 1 1 1 1
1 1 1 1 1 1 1 1 1 1
1 1 1 1 1 1 1 1 1 1
1 1 1 1 1 1 1 1 1 1
1 1 1 1 1 1 1 1 1 1
1 1 1 1 1 1 1 1 1 1
1 1 1 1 1 1 1 1 1 1
1 1 1 1 1 1 1 1 1 1
1 1 1 1 1 1 1 1 1 1
1 1 1 1 1 1 1 1 1 1
1 1 1 1 1 1 1 1 1 1
1 1 1 1 1 1 1 1 1 1
1 1 1 1 1 1 1 1 1 1
1 1 1 1 1 1 1 1 1 1
1 1 1 1 1 1 1 1 1 1
1
