# vtk DataFile Version 2.0
sampleSurface
ASCII
DATASET POLYDATA
POINTS 0 double

POLYGONS 0 0
CELL_DATA 0
FIELD attributes 1
weightsSum 1 0 float

