# vtk DataFile Version 2.0
sampleSurface
ASCII
DATASET POLYDATA
POINTS 305 double
2.00006 -4 0
2.00005 -4 0.999979
2.00005 -2.99978 0.999966
2.00006 -2.99969 0.499982
2.00007 -2.9997 0
2.00003 -4 1.99997
2.00003 -2.99989 1.99995
2.00004 -2.99981 1.49995
2.00002 -4 2.99997
2.00001 -2.99995 2.99996
2.00002 -2.99992 2.49995
2.00001 -4 3.99998
2.00001 -2.99998 3.99998
2.00001 -2.99997 3.49997
2.00001 -4 4.99999
2 -2.99999 4.99998
2 -1.99999 4.99998
2 -1.99998 3.99997
2.00001 -2.49998 3.99997
2 -0.999997 4.99998
2 -0.999996 4.49997
2 -0.999991 3.99996
2 -1.49998 3.99996
2 -4 5.99999
2 -3 5.99999
2 -2 5.99999
2 -0.999999 5.99999
2 -2.78048e-06 5.99999
2 -4.51077e-06 4.99998
2 -0.5 4.99998
2 -4 7
2 -3 7
2 -2 7
2 -1 7
2 -1.69242e-06 7
2 -4 8
2 -3 8
2 -2 8
2 -1 8
2 -1.20311e-06 8
2.50003 -2.9998 0.499989
2.50003 -2.99978 0
2.50003 -2.99984 0.999979
2.50003 -2.49981 0.999977
2.50003 -2.49976 0.499989
2.5 -1.49987 1
2.49998 -1.49981 0.750015
2.49996 -1.49974 0.500013
2.50001 -1.99972 0.499994
2.50002 -1.9998 0.99998
2.50002 -2.99988 1.49997
2.50002 -2.99992 1.99997
2.50002 -2.49987 1.49997
2.50002 -1.99987 1.49996
2.50003 -1.49993 1.49998
2.50002 -1.49992 1.24999
2.50001 -2.99994 2.49997
2.50001 -2.99996 2.99997
2.50001 -2.49994 2.49996
2.50002 -2.49991 1.99996
2.50001 -1.99995 2.49996
2.50001 -1.49997 2.49996
2.50001 -1.49997 2.24996
2.50002 -1.49996 1.99996
2.50002 -1.99992 1.99996
2.50001 -2.99998 3.49998
2.5 -2.99998 3.99998
2.50001 -2.49998 3.49998
2.50001 -2.49996 2.99997
2.5 -1.99998 3.49997
2.5 -1.49999 3.49997
2.5 -1.49998 2.99997
2.50001 -1.99997 2.99997
2.5 -0.999993 3.49997
2.5 -0.5 3.49997
2.5 -0.500001 2.99997
2.5 -0.749997 2.99997
2.5 -0.999993 2.99997
2.5 -2.49998 3.99998
2.5 -1.99998 3.99998
2.5 -1.49999 3.99998
2.5 -0.999995 3.99998
2.5 -0.999998 4.49998
2.5 -0.999999 4.99999
2.5 -0.500001 4.49998
2.5 -0.5 3.99998
2.5 -0.500001 4.99999
2.5 -3.50814e-06 4.99999
2.24969 -0.999464 0.250052
2.24942 -0.749495 0.250096
2.24932 -0.749387 0.125057
2.24934 -0.749327 0
2.24964 -0.999347 0
2.25004 -0.750243 1.00022
2.24992 -0.750206 0.875235
2.2498 -0.750065 0.750199
2.2499 -0.99986 0.750102
2.25002 -1.00001 1.00009
2.25009 -1.00006 1.25005
2.25018 -0.750263 1.25015
2.25014 -0.750305 1.12521
2.25006 -0.75004 1.99995
2.25009 -0.750072 1.87497
2.25011 -0.750097 1.74998
2.25008 -1.00003 1.74995
2.25005 -1 1.99993
2.37451 -0.000360048 0.62518
2.3743 -0.000222642 0.500144
2.37429 -0.12511 0.500146
2.37448 -0.12526 0.625179
2.37384 0.000459526 0.125076
2.37375 0.000608523 0
2.37381 -0.124351 0
2.37389 -0.124484 0.125074
2.37412 -1.77004e-05 0.375132
2.37414 -0.124913 0.375133
2.37407 -0.374437 0
2.37423 -0.499492 0
2.37427 -0.499557 0.125052
2.37412 -0.374521 0.125062
2.50003 -2.49972 0
2.5 -1.99966 0
2.49993 -1.49968 0.25001
2.49993 -1.49965 0
2.24995 -1.49959 0.500015
2.24993 -1.49949 0.250011
2.24992 -1.49944 0
2.24983 -1.2494 0
2.24985 -1.24947 0.250024
2.24998 -1.4997 0.75001
2.25001 -1.49979 0.999993
2.25001 -1.24986 1.00002
2.24996 -1.24974 0.75004
2.25052 -0.000555019 1.00074
2.25003 -0.000624708 0.875572
2.24988 -0.125632 0.875513
2.25037 -0.125627 1.00064
2.24956 -0.000693666 0.750369
2.24944 -0.125599 0.750361
2.24943 -0.250507 0.750361
2.24982 -0.250612 0.875478
2.25024 -0.250659 1.00056
2.50003 -1.49996 1.74997
2.25004 -1.4999 1.49994
2.25004 -1.49986 1.24997
2.25005 -1.24993 1.24999
2.25004 -1.49993 1.74993
2.25003 -1.49994 1.99992
2.25003 -1.24997 1.99992
2.25005 -1.24996 1.74993
2.25064 -0.125606 1.12563
2.25075 -0.000520743 1.12572
2.25049 -0.250648 1.12554
2.25074 -0.00046519 1.25056
2.25067 -0.125537 1.2505
2.25055 -0.250573 1.25043
2.50001 -1.49998 2.74997
2.25001 -1.49996 2.49994
2.25002 -1.49996 2.24993
2.25002 -1.24997 2.24993
2.25003 -0.999991 2.24993
2.25001 -1.49997 2.74994
2.25001 -1.49998 2.99995
2.25001 -0.999987 2.74995
2.25001 -1.24998 2.74994
2.25 -1.24998 2.99995
2.25 -0.999987 2.99995
2.25003 -0.750013 2.24995
2.25004 -0.750028 2.12495
2.25 -0.749994 2.99995
2.25001 -0.749996 2.74995
2.25 -1.77471e-05 2.74996
2.25001 -0.25001 2.74996
2.25 -0.250008 2.99995
2.25 -1.53656e-05 2.99995
2.24957 -0.749776 0.500149
2.24945 -0.749637 0.375134
2.24978 -0.999654 0.500083
2.37438 -0.624532 0
2.37441 -0.624585 0.125043
2.24965 -0.74995 0.625184
2.25017 -0.750184 1.50005
2.2502 -0.750255 1.37511
2.2501 -1.00005 1.49999
2.25015 -0.750152 1.62501
2.24919 -0.000625862 0.625222
2.2491 -0.125454 0.625245
2.24914 -0.250318 0.625265
2.2489 -0.25005 0.50023
2.24882 -0.125182 0.500209
2.24952 -0.375397 0.75034
2.24983 -0.37553 0.875424
2.25009 -0.500487 1.00037
2.25015 -0.375601 1.00047
2.24986 -0.500411 0.875352
2.24963 -0.500278 0.750298
2.24926 -0.375199 0.625265
2.24926 -0.499884 0.500208
2.24943 -0.500095 0.625242
2.24906 -0.374956 0.500229
2.37433 -0.250027 0.500152
2.24891 -0.374686 0.375213
2.24913 -0.499665 0.375186
2.24872 -0.249729 0.375225
2.24903 -0.499455 0.250152
2.24879 -0.374415 0.250185
2.374 -0.124688 0.250116
2.37396 0.000228347 0.250117
2.37399 -0.249489 0.12507
2.37408 -0.249655 0.250114
2.37392 -0.249382 0
2.37419 -0.249847 0.375135
2.37429 -0.37481 0.37513
2.3742 -0.374652 0.250105
2.37434 -0.499661 0.250091
2.24894 -0.499285 0.125091
2.25045 -0.000300378 1.50021
2.25061 -0.000386007 1.37537
2.25057 -0.125437 1.37533
2.25043 -0.125332 1.50019
2.25049 -0.250463 1.37529
2.25039 -0.250348 1.50017
2.25025 -0.500501 1.12534
2.25036 -0.375603 1.12544
2.25043 -0.37554 1.25035
2.25032 -0.500457 1.25027
2.25041 -0.37544 1.37524
2.25027 -0.500293 1.50011
2.25033 -0.375334 1.50014
2.25032 -0.50038 1.37519
2.5 -1.24999 2.99997
2.5 -8.59996e-06 3.49997
2.5 -9.91893e-06 2.99997
2.5 -0.250006 2.99998
2.5 -6.35985e-06 3.99998
2.25 -0.500001 2.99995
2.2503 -0.12524 1.62509
2.25031 -0.000222606 1.6251
2.25028 -0.250249 1.62508
2.25019 -0.250171 1.75002
2.2502 -0.125167 1.75003
2.25021 -0.000159257 1.75003
2.2499 -1.2496 0.500038
2.25006 -1.24996 1.49996
2.25001 -1.24997 2.49994
2.25001 -0.999988 2.49994
2.25001 -0.750001 2.49995
2.25002 -0.750009 2.37495
2.25001 -2.11633e-05 2.49996
2.25001 -0.125019 2.49996
2.25001 -0.250015 2.49996
2.25001 -0.500004 2.74995
2.25001 -0.375014 2.49996
2.25001 -0.50001 2.49996
2.24917 -0.624354 0.12507
2.24924 -0.624485 0.250121
2.24913 -0.624275 0
2.24933 -0.624651 0.375156
2.24944 -0.624828 0.500179
2.2499 -0.625292 0.875283
2.25006 -0.625362 1.00029
2.24973 -0.625166 0.750248
2.24957 -0.62501 0.62521
2.25018 -0.625389 1.12526
2.25024 -0.62536 1.25021
2.25025 -0.62531 1.37514
2.25022 -0.625241 1.50008
2.25009 -0.625085 1.87497
2.25013 -0.625125 1.74999
2.25007 -0.500063 1.99996
2.25011 -0.500098 1.87498
2.25006 -0.625054 1.99996
2.25015 -0.500147 1.75
2.25018 -0.62518 1.62503
2.25021 -0.500213 1.62505
2.25013 -0.250114 1.87499
2.25013 -0.125113 1.87499
2.25008 -7.63873e-05 1.99997
2.25013 -0.000111169 1.87499
2.25008 -0.125075 1.99997
2.25008 -0.250074 1.99997
2.25018 -0.375164 1.75001
2.25012 -0.375109 1.87498
2.25008 -0.37507 1.99997
2.25025 -0.375239 1.62506
2.5 -4.50074e-06 4.49998
2.25005 -0.12505 2.12496
2.25005 -5.22042e-05 2.12496
2.25005 -0.250048 2.12496
2.25003 -0.250031 2.24996
2.25003 -0.125033 2.24996
2.25003 -3.61363e-05 2.24996
2.25001 -0.625007 2.49996
2.25004 -0.625034 2.12496
2.25005 -0.50004 2.12496
2.25003 -0.62502 2.24996
2.25003 -0.500025 2.24996
2.25002 -0.625012 2.37496
2.25002 -0.500015 2.37496
2.25005 -0.375045 2.12496
2.25003 -0.375028 2.24996
2.25002 -0.250021 2.37496
2.25002 -0.125023 2.37496
2.25002 -2.62739e-05 2.37496
2.25002 -0.375018 2.37496

POLYGONS 259 1325
5 0 1 2 3 4
5 1 5 6 7 2
5 5 8 9 10 6
5 8 11 12 13 9
4 11 14 15 12
5 12 15 16 17 18
6 17 16 19 20 21 22
4 14 23 24 15
4 15 24 25 16
4 16 25 26 19
5 19 26 27 28 29
4 23 30 31 24
4 24 31 32 25
4 25 32 33 26
4 26 33 34 27
4 30 35 36 31
4 31 36 37 32
4 32 37 38 33
4 33 38 39 34
4 4 3 40 41
4 2 42 40 3
4 43 44 40 42
5 45 46 47 48 49
4 2 7 50 42
4 6 51 50 7
4 50 52 43 42
5 53 54 55 45 49
4 6 10 56 51
4 9 57 56 10
4 56 58 59 51
5 60 61 62 63 64
4 9 13 65 57
4 12 66 65 13
4 65 67 68 57
4 69 70 71 72
5 73 74 75 76 77
4 12 18 78 66
4 17 79 78 18
4 17 22 80 79
4 21 81 80 22
4 21 20 82 81
4 19 83 82 20
4 82 84 85 81
4 19 29 86 83
4 28 87 86 29
5 88 89 90 91 92
5 93 94 95 96 97
5 98 99 100 93 97
5 101 102 103 104 105
4 106 107 108 109
4 110 111 112 113
4 108 107 114 115
4 116 117 118 119
4 40 44 120 41
4 43 49 48 44
4 120 44 48 121
5 48 47 122 123 121
4 47 124 125 122
4 123 122 125 126
4 127 128 88 92
4 47 46 129 124
4 45 130 129 46
4 131 97 96 132
4 133 134 135 136
4 137 138 135 134
4 139 140 135 138
4 141 136 135 140
4 53 49 43 52
4 59 52 50 51
4 59 64 53 52
5 63 142 54 53 64
4 54 143 144 55
4 45 55 144 130
4 131 145 98 97
4 54 142 146 143
4 63 147 146 142
4 148 105 104 149
4 133 136 150 151
4 141 152 150 136
4 153 151 150 154
4 155 154 150 152
5 71 156 61 60 72
4 61 157 158 62
4 63 62 158 147
4 148 159 160 105
4 61 156 161 157
4 71 162 161 156
4 163 164 165 166
5 160 167 168 101 105
4 169 170 163 166
4 171 172 173 174
5 175 176 89 88 177
4 118 117 178 179
5 96 95 180 175 177
5 181 182 99 98 183
5 104 103 184 181 183
4 137 185 186 138
4 139 138 186 187
4 188 187 186 189
4 139 190 191 140
4 192 193 191 194
4 141 140 191 193
4 195 194 191 190
4 139 187 196 190
4 197 198 196 199
4 188 199 196 187
4 195 190 196 198
4 186 185 106 109
4 108 189 186 109
4 188 189 108 200
4 197 199 201 202
4 188 203 201 199
4 204 202 201 205
4 110 113 206 207
4 208 209 206 113
4 112 210 208 113
4 206 115 114 207
4 211 115 206 209
4 211 200 108 115
4 188 200 211 203
4 201 203 211 212
4 213 205 201 212
4 211 209 213 212
4 204 205 213 214
4 208 119 213 209
4 116 119 208 210
4 213 119 118 214
4 204 214 118 215
4 216 217 218 219
4 153 154 218 217
4 155 220 218 154
4 221 219 218 220
4 192 222 223 193
4 141 193 223 152
4 155 152 223 224
4 225 224 223 222
4 155 224 226 220
4 227 228 226 229
4 225 229 226 224
4 221 220 226 228
5 73 77 230 71 70
4 80 70 69 79
4 80 81 73 70
4 77 166 165 230
4 71 230 165 162
5 75 74 231 232 233
4 85 74 73 81
4 231 74 85 234
4 77 76 169 166
4 75 235 169 76
4 232 174 173 233
4 75 233 173 235
4 216 219 236 237
4 221 238 236 219
4 239 240 236 238
4 241 237 236 240
4 88 128 242 177
4 127 126 125 128
4 242 128 125 124
4 96 177 242 132
4 131 132 129 130
4 129 132 242 124
4 98 145 243 183
4 131 130 144 145
4 243 145 144 143
4 104 183 243 149
4 148 149 146 147
4 146 149 243 143
4 148 147 158 159
4 160 159 244 245
4 244 159 158 157
5 246 247 167 160 245
5 171 248 249 250 172
4 173 172 251 235
5 251 172 250 252 253
4 204 215 254 255
4 89 255 254 90
4 91 90 254 256
4 197 202 257 258
4 204 255 257 202
4 89 176 257 255
4 175 258 257 176
4 118 179 254 215
4 178 256 254 179
4 192 194 259 260
4 195 261 259 194
4 95 94 259 261
4 93 260 259 94
4 197 258 262 198
4 195 198 262 261
4 95 261 262 180
4 175 180 262 258
4 192 260 263 222
4 225 222 263 264
4 99 264 263 100
4 93 100 263 260
4 227 229 265 266
4 225 264 265 229
4 99 182 265 264
4 181 266 265 182
4 103 102 267 268
4 269 270 267 271
4 101 271 267 102
4 272 268 267 270
4 227 266 273 274
4 103 268 273 184
4 181 184 273 266
4 272 274 273 268
4 239 275 276 240
4 277 278 276 279
4 280 279 276 275
4 241 240 276 278
4 239 281 282 275
4 269 283 282 270
4 280 275 282 283
4 272 270 282 281
4 227 274 284 228
4 221 228 284 238
4 239 238 284 281
4 272 281 284 274
4 59 58 60 64
4 68 58 56 57
4 68 72 60 58
4 69 72 68 67
4 78 67 65 66
4 78 79 69 67
4 85 84 285 234
4 86 84 82 83
4 285 84 86 87
4 244 164 163 245
4 244 157 161 164
4 161 162 165 164
4 277 279 286 287
4 280 288 286 279
4 289 290 286 288
4 291 287 286 290
4 246 245 163 170
4 251 170 169 235
5 246 170 251 253 292
4 269 271 293 294
4 101 168 293 271
4 167 295 293 168
4 296 294 293 295
4 167 247 297 295
4 253 298 297 292
4 296 295 297 298
4 246 292 297 247
4 269 294 299 283
4 280 283 299 288
4 289 288 299 300
4 296 300 299 294
4 289 301 302 290
4 248 303 302 249
4 250 249 302 301
4 291 290 302 303
4 289 300 304 301
4 253 252 304 298
4 296 298 304 300
4 250 301 304 252
CELL_DATA 259
FIELD attributes 1
weightsSum 1 259 float
1 1 1 1 1 1 1 1 1 1
1 1 1 1 1 1 1 1 1 1
1 1 1 1 1 1 1 1 1 1
1 1 1 1 1 1 1 1 1 1
1 1 1 1 1 1 1 1 1 1
1 1 1 1 1 1 1 1 1 1
1 1 1 1 1 1 1 1 1 1
1 1 1 1 1 1 1 1 1 1
1 1 1 1 1 1 1 1 1 1
1 1 1 1 1 1 1 1 1 1
1 1 1 1 1 1 1 1 1 1
1 1 1 1 1 1 1 1 1 1
1 1 1 1 1 1 1 1 1 1
1 1 1 1 1 1 1 1 1 1
1 1 1 1 1 1 1 1 1 1
1 1 1 1 1 1 1 1 1 1
1 1 1 1 1 1 1 1 1 1
1 1 1 1 1 1 1 1 1 1
1 1 1 1 1 1 1 1 1 1
1 1 1 1 1 1 1 1 1 1
1 1 1 1 1 1 1 1 1 1
1 1 1 1 1 1 1 1 1 1
1 1 1 1 1 1 1 1 1 1
1 1 1 1 1 1 1 1 1 1
1 1 1 1 1 1 1 1 1 1
1 1 1 1 1 1 1 1 1
