# vtk DataFile Version 2.0
sampleSurface
ASCII
DATASET POLYDATA
POINTS 1109 double
1.25053 -0.0635179 0.0758665
1.2717 -0.0536518 0
1.3769 -0.0226299 0
1.31722 -0.059723 0.0397579
1.55679 -0.0682353 0.138683
1.58237 -0.0520857 0.167385
1.4996 -0.0560079 0.189122
1.49925 -0.0700952 0.110736
1.80851 -0.0590217 0.251378
1.73202 -0.045922 0.254126
1.72245 -0.0388616 0.209375
1.80659 -0.0562188 0.189866
1.74045 -0.0496604 0.0676178
1.80486 -0.0517166 0.0649274
1.80655 -0.0543448 0.127409
1.74445 -0.0559318 0.127942
1.50098 -0.0220548 0
1.5986 -0.0497845 0
1.61667 -0.0632774 0.0802131
1.55999 -0.0561039 0.0409673
1.80708 0.00201545 0.313536
1.74308 0.00242426 0.313497
1.73549 -0.048717 0.313842
1.80903 -0.0609165 0.31376
1.67134 -0.0507836 0.128815
1.68848 -0.0648427 0.185095
1.67095 -0.0479154 0
1.65313 -0.0345986 0.0959453
1.73818 -0.048736 0
1.86961 -0.056803 0.189357
1.87056 -0.0591442 0.251314
1.86925 -0.0551909 0.126859
1.80366 -0.0510998 0
1.86779 -0.0531905 0
1.86836 -0.0536042 0.0639677
1.8708 -0.0607736 0.313541
1.86991 0.00175993 0.313421
1.5101 0.000201621 0.12932
1.49531 0.00346431 0.187092
1.57913 0.000405141 0.176126
1.27419 0.00204692 0
1.25115 0.00315089 0.0562216
0.502291 0.00214786 1.49321
0.438669 0.00210663 1.49359
0.43915 0.00219023 1.43148
0.50451 0.00360482 1.43265
0.374809 0.00202786 1.49411
0.373615 0.00290716 1.43165
0.369492 0.00464985 1.37032
0.459117 -0.0139597 1.34568
0.248156 0.00242982 1.3691
0.247288 0.00298531 1.30634
0.302559 0.00634167 1.30667
0.307811 0.00395348 1.36914
0.0145016 -0.0043989 1.00091
0.0159956 0.00221694 0.944855
0.0424873 -0.00466085 0.979282
0.0923683 -0.00523809 0.985652
0.261385 -0.00378413 0.737459
0.180717 -0.00176727 0.732263
0.187483 -0.0128747 0.67785
0.266536 -0.00466414 0.67664
0.24014 0.00513556 1.00734
0.258891 0.0061176 0.938413
0.33799 0.00310297 0.925705
0.316954 0.0018269 1.00383
0.156759 0.0148528 1.00392
0.17926 0.00588207 0.933218
0.275186 -0.000308066 0.819308
0.189397 -0.00425809 0.805194
0.00621629 0.0096693 0.734641
0.00265152 0.00551171 0.676128
0.0725526 0.00471886 0.672639
0.0768094 0.00871846 0.73119
0.318144 0.00120755 0.76108
0.316718 -0.00315314 0.797955
0.129452 -0.00119365 0.732791
0.128142 -0.0062738 0.674292
0.248502 -0.00146834 0.622263
0.16884 -0.0044514 0.604508
0.123523 -0.0277884 0.604348
0.275082 0.00464658 0.865169
0.31076 -0.0159675 0.902945
0.384314 -0.00552426 0.996432
0.361371 -0.0187845 0.922594
0.108622 0.0173931 0.979781
0.130431 0.00503644 0.922188
0.185279 0.00217632 0.87574
0.0956076 -0.000684226 0.899143
0.124444 -0.000749672 0.806041
0.0819839 0.00391997 0.799076
0.000970611 0.00926613 0.618988
0.0637335 0.0111787 0.622314
0.385943 0.00703212 0.776051
0.349813 0.0178377 0.831951
0.429469 -0.00890902 0.937696
0.480542 -0.00251862 1.00474
0.327798 0.000959469 0.692658
0.227354 0.00432435 0
0.225286 0.0144422 0.0892468
0.173564 0.00581909 0.0498151
0.118832 0.000574526 0
0.303247 -0.000433121 0
0.314447 0.00133862 0.0711036
0.255478 -0.00154237 0.508654
0.311963 -0.0030582 0.407113
0.322707 0.00123556 0.499372
0.316713 0.00440448 0.565835
0.224554 -0.00146397 0.555682
-5 -2.03332e-06 0
-3.9999 -9.66855e-07 0
-3.99993 -1.85608e-06 0.999987
-5 -2.29476e-06 0.999993
-2.99977 3.59008e-06 0
-2.99978 3.2298e-06 0.499979
-2.99984 6.06322e-07 0.999969
-2.49963 1.00749e-05 0
-2.49969 8.77404e-06 0.499964
-1.99938 2.37136e-05 0
-1.49893 4.95726e-05 0
-1.49895 6.10985e-05 0.249882
-1.49916 5.90726e-05 0.499811
-1.99949 2.32941e-05 0.499921
-0.997702 7.00656e-05 0
-0.871976 4.94679e-05 0
-0.872096 0.000112659 0.124735
-0.997677 0.000104209 0.1248
-3.99996 -2.86879e-06 1.99998
-5 -2.54585e-06 1.99999
-2.99988 -1.64561e-06 1.49996
-2.99992 -3.24176e-06 1.99997
-2.49977 4.26023e-06 0.999946
-2.49984 -6.81997e-07 1.49994
-1.99965 1.27e-05 0.999893
-1.4995 3.06508e-05 0.999779
-1.49962 1.43326e-05 1.24979
-1.49974 1.74126e-06 1.49983
-1.99979 1.05795e-06 1.4999
-0.999279 6.13892e-05 0.999479
-0.874171 6.68936e-05 0.999307
-0.8743 2.56394e-05 1.12439
-0.999385 3.12169e-05 1.12451
0.0775044 -0.00566038 1.05563
0.0128923 -0.0050995 1.0583
-3.99998 -2.9254e-06 2.99999
-5 -2.42268e-06 2.99999
-2.99995 -3.9749e-06 2.49997
-2.99997 -3.8078e-06 2.99998
-2.4999 -3.58322e-06 1.99995
-2.49994 -4.53116e-06 2.49997
-1.99988 -4.34009e-06 1.99993
-1.49988 -6.55039e-06 1.9999
-1.49993 -7.12062e-06 2.24992
-1.49995 -6.50495e-06 2.49994
-1.99994 -5.48767e-06 2.49995
-0.999888 -1.098e-05 1.99986
-0.874879 -1.23759e-05 1.99983
-0.874914 -1.03859e-05 2.12487
-0.999919 -9.79749e-06 2.12488
0.000297544 1.49895e-05 1.99897
0.125269 3.71625e-05 1.99872
0.12517 1.37101e-05 2.1241
0.00018516 4.6853e-06 2.12426
-3.99999 -2.44578e-06 3.99999
-5 -2.03055e-06 3.99999
-2.99998 -3.65245e-06 3.49998
-2.99999 -3.17752e-06 3.99999
-2.49997 -4.48881e-06 2.99997
-2.49998 -4.20257e-06 3.49998
-1.99997 -5.33714e-06 2.99997
-1.49997 -5.91116e-06 2.99996
-1.49998 -6.11999e-06 3.49996
-1.99998 -5.0647e-06 3.49997
-0.999979 -6.91576e-06 2.99994
-0.749978 -7.62696e-06 2.99992
-0.499979 -8.60723e-06 2.99989
-0.499987 -9.37508e-06 3.49992
-0.999985 -7.46368e-06 3.49995
1.63559e-05 -1.1311e-05 2.99982
0.250011 -1.39869e-05 2.99976
0.500002 -1.77828e-05 2.99975
0.500002 -1.53417e-05 3.49986
8.82477e-06 -1.18105e-05 3.49988
-4 -1.91249e-06 4.99999
-5 -1.5826e-06 4.99999
-2.99999 -2.60347e-06 4.99999
-2.49998 -3.929e-06 3.99998
-1.99999 -4.67078e-06 3.99998
-1.99999 -3.72428e-06 4.99998
-1.49999 -5.92062e-06 3.99997
-0.999989 -6.9667e-06 3.99996
-0.999994 -5.07495e-06 4.99997
-0.499991 -8.8391e-06 3.99994
5.0194e-06 -1.00327e-05 3.99992
2.25413e-06 -8.02424e-06 4.49995
2.08356e-06 -5.96674e-06 4.99997
0.500001 -1.15894e-05 3.99992
0.500001 -8.47296e-06 4.49995
-4 -1.39517e-06 6
-5 -1.1748e-06 6
-3 -1.86217e-06 5.99999
-2 -2.53907e-06 5.99999
-0.999997 -3.25704e-06 5.99999
1.74478e-06 -3.68542e-06 5.99998
0.5 -6.62318e-06 4.99996
1 -6.13326e-06 4.99997
1 -3.59965e-06 5.99998
-4 -1.0128e-06 7
-5 -8.77784e-07 7
-3 -1.29703e-06 7
-2 -1.67819e-06 7
-0.999998 -2.04413e-06 6.99999
1.19936e-06 -2.23089e-06 6.99999
1 -2.12223e-06 6.99999
-4 -8.26974e-07 8
-5 -7.35794e-07 8
-3 -1.0194e-06 8
-2 -1.26374e-06 8
-0.999999 -1.47976e-06 8
9.13583e-07 -1.57081e-06 8
1 -1.47488e-06 8
-0.999103 0.000105282 0.874386
-0.873996 0.000126045 0.8742
-0.0523844 -0.00368566 0.999648
-0.0554959 -0.00108369 0.941927
0.000473016 3.02836e-05 1.87357
0.125411 8.20358e-05 1.8732
-0.999847 -1.28717e-05 1.87481
-0.874831 -1.46615e-05 1.87479
-0.124697 -1.98891e-06 1.99918
-0.124516 -3.84064e-06 1.87388
-0.0524343 -0.00403519 1.05917
0.00205822 -8.11111e-05 1.49659
0.00373284 -0.000533597 1.37063
0.127498 0.000285769 1.36984
0.126308 0.000414767 1.49581
-0.497081 0.00168127 0.493057
-0.434924 0.00248518 0.49073
-0.434875 0.00196365 0.555252
-0.497337 0.00151078 0.556333
-0.498523 -0.000122467 0.998031
-0.49867 0.00012032 0.872605
-0.374072 -6.67339e-05 0.871806
-0.373143 -0.000459293 0.997377
-0.491657 -0.000834346 0
-0.427221 -0.00157637 0
-0.427841 -0.0012429 0.0633866
-0.491561 -0.000666784 0.0629405
-0.496462 0.00193606 0.429847
-0.434609 0.00280725 0.427547
0.564044 0.000767883 1.42739
0.564334 0.00111813 1.49067
0.386098 0.00657985 0.160516
0.366578 0.0143323 0.18525
0.311854 0.00222934 0.194002
0.306128 -0.00717592 0.157402
0.406845 0.00907876 0.703577
0.418211 0.0115781 0.633655
0.326732 0.00272 0.627793
0.36854 -0.00237777 0.0710578
0.435976 -0.0120524 0.072344
0.435508 -0.00142867 0.158884
0.502902 -0.014996 0.153429
0.498165 -0.0196739 0.0792731
0.381221 9.76314e-05 0.370786
0.412978 -0.00435784 0.398645
0.452354 0.00654967 0.435811
0.396141 0.00180179 0.427353
0.407292 0.0123212 0.502462
0.478756 0.023561 0.514025
0.861593 0.0056827 0.379467
0.842255 0.00172935 0.443928
0.830912 0.00781458 0.420325
0.840167 -0.00530002 0.363659
0.806574 0.0154118 0.312352
0.866026 0.00697698 0.309718
0.879116 0.0157192 0.227891
0.820094 0.008028 0.260959
0.192954 -0.0180878 0.583618
0.398241 0.0220818 0.560475
0.456997 0.0472075 0.541405
0.49942 0.0162498 0.635942
0.475934 0.0169893 0.698616
0.00690115 -0.00171605 1.24439
0.00914121 -0.00276696 1.18114
0.0721673 -0.00262534 1.18041
0.0702721 -0.00172207 1.24349
0.248581 0.00274236 1.24366
0.192272 0.000116499 1.24342
0.196382 -0.00111045 1.18042
0.255072 0.00110209 1.187
0.237817 0.00164406 1.07727
0.162132 0.00359638 1.07982
2.69369e-05 -1.00885e-05 2.74976
0.250018 -1.2734e-05 2.7497
0.99999 -2.74302e-05 2.99975
0.749994 -2.35701e-05 2.99972
0.749994 -2.63768e-05 2.74963
0.999985 -3.46515e-05 2.74966
0.999933 -0.000160161 1.99811
0.999956 -0.000111617 2.1237
0.874991 -8.19789e-05 2.12359
0.874998 -0.000111712 1.99792
-0.253084 0.000818058 0.743885
-0.195061 0.000984296 0.740038
-0.192462 0.000988594 0.806247
-0.252666 0.000235139 0.807089
-0.247249 -0.0011689 0.996891
-0.24839 -0.00100364 0.93399
-0.185136 -0.00130523 0.934393
-0.183556 -0.00178257 0.997056
-0.228394 -0.00993763 0
-0.163667 -0.0112142 0
-0.163782 -0.0314517 0.0827598
-0.23832 -0.0161574 0.0677142
0.626651 0.000451319 1.48889
0.625903 0.000345326 1.61766
0.501022 0.000911267 1.61909
0.500176 4.37207e-05 1.99797
0.5003 0.000139151 1.872
0.625253 4.85691e-05 1.87174
0.625136 -1.08113e-06 1.99783
-0.372717 -0.000533356 1.12265
-0.498447 -0.000206962 1.1233
-0.499087 -9.39686e-05 1.49898
-0.498812 -0.000141955 1.37376
-0.373298 -0.000263879 1.37325
-0.373751 -0.000151169 1.49858
-0.122975 -0.000231518 1.49737
-0.121725 -0.000603973 1.37166
0.312474 -0.000292488 1.07036
0.303707 0.00837864 1.17486
0.298788 0.00769261 1.23842
-0.225352 0.0119363 0.484253
-0.156449 0.000860479 0.570001
-0.241901 0.00469869 0.568933
-0.251296 0.00174321 0.682889
-0.192347 0.00223348 0.679636
-0.0695737 0.000948061 0.738232
-0.0717484 0.00222485 0.673292
0.75084 -0.00010489 1.48902
0.688909 0.000101629 1.4877
0.689259 -0.000133078 1.42214
0.751038 -0.000250204 1.424
0.751271 -0.00111215 1.23678
0.751291 -0.000984057 1.29286
0.690881 -0.00188265 1.28179
0.692796 -0.00417098 1.21733
0.812994 -0.000580213 1.24716
[...]
CELL_DATA 905
FIELD attributes 1
weightsSum 1 905 float
1.02247 1.01077 1.00093 1.0009 1.01431 1 1.00001 1.07535 1.06044 1.01067
1.00356 1.00855 1.00001 1 1 1 1.00007 1 1 1.01278
1.00655 1.00297 1.00012 1.00004 1.00618 1.00027 1.00272 1.00626 1 1.00318
1.00105 1 1.00669 1.00274 1.00034 1.05694 1.10032 1.05695 1.00204 1.00029
1.0013 1.00004 1.00036 1.00158 1.00107 1 1.00002 1.00075 1.0303 1.02798
1.00148 1.00001 1.00052 1.00121 1 1.00003 1 1 1 1
1 1 1 1 1 1 1 1 1 1
1 1 1 1 1 1 1 1 1 1
1 1 1 1 1 1 1 1 1 1
1 1 1 1 1 1 1 1 1 1
1 1 1 1 1.00101 1 1 1 1.00001 1
1.00001 1 1 1 1.00022 1.00606 1.00008 1.00002 1.0005 1.00002
1.00068 1.01116 1.0007 1.05786 1.05474 1.01042 1.07975 1.00003 1.00277 1.00284
1.05271 1.00972 1.00071 1 1 1.00003 1.00191 1 1 1
1.00002 1.00001 1.00502 1.00002 1 1 1 1 1.00006 1.00046
1 1.00001 1.00155 1 1.00023 1 1 1.00479 1.01022 1.00004
1.00153 1.0046 1 1 1 1 1 1 1.00002 1.00005
1.00429 1 1 1 1.00959 1.00002 1.00015 1 1 1
1.00002 1.00001 1.00002 1.00002 1.00003 1.00003 1.00027 1 1.00175 1
1.00001 1.00017 1.00001 1.09104 1.00197 1.00314 1.00001 1.00001 1.00003 1.00001
1.00149 1 1.00367 1.00376 1.0061 1.12934 1.00092 1.00491 1.01915 1.00089
1.00026 1.00817 1.00063 1.00087 1.0603 1.00168 1.02623 1.00011 1.00077 1.00001
1.04608 1.00204 1.00009 1.00002 1.00002 1.0007 1 1.00021 1 1.00025
1.01034 1 1.13989 1 1 1 1.00001 1 1 1.09287
1.00002 1.00003 1.00431 1.00006 1.00029 1.00554 1.00028 1.00001 1.00084 1.00113
1.0024 1.00409 1.00087 1.00074 1.00026 1.00293 1 1.00032 1.01823 1.00328
1.00085 1.00312 1.00138 1.00028 1 1 1 1 1 1
1 1 1 1 1 1 1 1 1 1
1 1 1 1 1 1 1 1 1 1
1 1 1 1 1 1 1 1 1 1
1 1 1 1 1 1 1 1 1.00002 1
1.00001 1.00004 1 1 1 1.00001 1.00003 1 1 1.00001
1 1 1 1 1.00003 1.0005 1.00047 1.00003 1.00003 1.00001
1 1 1 1 1 1 1 1 1 1
1 1 1.00008 1.00382 1.00001 1.00001 1.00001 1 1 1
1 1 1 1 1 1 1 1 1 1
1 1 1 1 1 1.00001 1 1 1 1
1 1 1 1 1 1 1 1 1 1
1.00001 1 1 1.00004 1 1.00001 1.00006 1.00001 1.00001 1
1.00025 1.00003 1.00001 1.00007 1.00001 1.00001 1.00005 1.00023 1.00468 1
1.00002 1.00011 1 1 1 1 1 1 1 1
1 1 1 1 1 1 1 1 1 1
1 1 1 1 1 1 1 1.00003 1 1
1 1 1 1 1 1 1 1 1 1
1 1 1 1 1 1 1 1 1 1
1 1 1 1 1 1 1 1 1 1
1 1 1 1 1 1 1 1 1 1
1 1 1 1 1 1 1 1 1 1
1 1 1 1 1 1 1 1 1 1
1 1 1 1 1 1 1 1 1 1
1 1 1 1 1 1 1 1 1 1
1 1 1 1 1 1 1 1 1 1
1 1 1 1 1 1 1 1 1 1
1 1.01653 1.00749 1 1.00188 1.00022 1.00448 1.00458 1.00059 1.00001
1.00065 1.03312 1.00089 1.00002 1.00016 1.00004 1 1.00333 1.00705 1.03696
1.00003 1.00065 1.00026 1.0318 1 1.00073 1.00002 1.00089 1.00011 1.06394
1.01519 1.00009 1 1.00245 1.00001 1.00048 1.00001 1 1.0137 1.00866
1.00366 1.00315 1.00003 1.00006 1 1.00007 1.00077 1.0001 1.00252 1.00018
1.00005 1.01931 1.03083 1.01055 1.18815 1.01416 1.00752 1.00535 1.00027 1.00061
1.00857 1.01715 1.0125 1.00347 1.00336 1.00193 1.00135 1.01085 1 1
1.00001 1 1 1 1 1 1 1 1 1
1 1 1 1 1 1 1.00004 1.00001 1.00001 1
1 1 1 1 1 1 1.00013 1 1 1
1 1 1 1.00001 1 1 1 1 1 1
1 1 1 1 1 1 1 1 1 1
1 1 1 1 1 1 1 1 1 1
1 1 1 1 1 1 1 1 1 1
1 1 1 1 1 1 1 1 1 1
1 1 1 1 1 1 1 1 1 1
1 1 1 1.00004 1.00004 1 1 1 1.00002 1
1.00008 1 1 1 1 1 1.00053 1.00001 1.00014 1.00008
1.00005 1.00073 1.0002 1.0001 1.00004 1.00259 1 1.00046 1 1
1 1.00571 1 1 1 1.00013 1.00001 1.00007 1.01409 1
1.00009 1 1.00002 1.00002 1.00001 1.00042 1 1.0021 1.00042 1.00006
1.00006 1.00007 1 1.00001 1 1 1.00001 1.00017 1.0002 1.00132
1.00088 1 1.00001 1 1 1 1 1.00001 1.00006 1.00001
1 1.00002 1 1 1 1 1 1 1 1
1 1.00001 1.00033 1.00006 1.00032 1 1.00001 1.00001 1 1
1 1 1 1 1 1 1 1 1 1
1 1 1 1 1 1 1 1 1 1
1 1 1 1 1 1.00016 1.00017 1.0196 1.0008 1.00017
1 1.00016 1.00047 1.00004 1 1.00001 1 1 1.00001 1
1 1 1 1 1 1.00004 1 1 1.00019 1.00005
1.00005 1 1 1 1 1 1 1.00011 1 1
1.00003 1 1 1.00015 1 1.00003 1.00001 1 1 1
1 1.00003 1.00001 1 1 1 1 1 1 1
1.00001 1 1 1 1 1.00001 1 1 1 1
1 1 1 1 1 1 1 1 1 1
1 1 1 1 1 1 1 1 1 1
1 1 1 1 1 1 1 1 1 1.00001
1 1.00001 1 1 1
