# vtk DataFile Version 2.0
sampleSurface
ASCII
DATASET POLYDATA
POINTS 1380 double
2.00006 -4 0
2.00007 -2.9997 0
2.00006 -2.99969 0.499982
2.00005 -2.99978 0.999966
2.00005 -4 0.999979
2.00004 -2.99981 1.49995
2.00003 -2.99989 1.99995
2.00003 -4 1.99997
2.00002 -2.99992 2.49995
2.00001 -2.99995 2.99996
2.00002 -4 2.99997
2.00001 -2.99997 3.49997
2.00001 -2.99998 3.99998
2.00001 -4 3.99998
2 -2.99999 4.99998
2.00001 -4 4.99999
2.00001 -2.49998 3.99997
2 -1.99998 3.99997
2 -1.99999 4.99998
2 -1.49998 3.99996
2 -0.999991 3.99996
2 -0.999996 4.49997
2 -0.999997 4.99998
2 -3 5.99999
2 -4 5.99999
2 -2 5.99999
2 -0.999999 5.99999
2 -0.5 4.99998
2 -4.51077e-06 4.99998
2 -2.78048e-06 5.99999
2 -3 7
2 -4 7
2 -2 7
2 -1 7
2 -1.69242e-06 7
2 -3 8
2 -4 8
2 -2 8
2 -1 8
2 -1.20311e-06 8
2.50003 -2.99978 0
2.50003 -2.9998 0.499989
2.50003 -2.99984 0.999979
2.50003 -2.49981 0.999977
2.50003 -2.49976 0.499989
2.5 -1.49987 1
2.50002 -1.9998 0.99998
2.50001 -1.99972 0.499994
2.49996 -1.49974 0.500013
2.49998 -1.49981 0.750015
2.50002 -2.99988 1.49997
2.50002 -2.99992 1.99997
2.50002 -2.49987 1.49997
2.50002 -1.99987 1.49996
2.50002 -1.49992 1.24999
2.50003 -1.49993 1.49998
2.50001 -2.99994 2.49997
2.50001 -2.99996 2.99997
2.50002 -2.49991 1.99996
2.50001 -2.49994 2.49996
2.50001 -1.99995 2.49996
2.50002 -1.99992 1.99996
2.50002 -1.49996 1.99996
2.50001 -1.49997 2.24996
2.50001 -1.49997 2.49996
2.50001 -2.99998 3.49998
2.5 -2.99998 3.99998
2.50001 -2.49996 2.99997
2.50001 -2.49998 3.49998
2.5 -1.99998 3.49997
2.50001 -1.99997 2.99997
2.5 -1.49998 2.99997
2.5 -1.49999 3.49997
2.5 -0.999993 3.49997
2.5 -0.999993 2.99997
2.5 -0.749997 2.99997
2.5 -0.500001 2.99997
2.5 -0.5 3.49997
2.5 -2.49998 3.99998
2.5 -1.99998 3.99998
2.5 -1.49999 3.99998
2.5 -0.999995 3.99998
2.5 -0.999998 4.49998
2.5 -0.999999 4.99999
2.5 -0.5 3.99998
2.5 -0.500001 4.49998
2.5 -0.500001 4.99999
2.5 -3.50814e-06 4.99999
2.24969 -0.999464 0.250052
2.24964 -0.999347 0
2.24934 -0.749327 0
2.24932 -0.749387 0.125057
2.24942 -0.749495 0.250096
2.25004 -0.750243 1.00022
2.25002 -1.00001 1.00009
2.2499 -0.99986 0.750102
2.2498 -0.750065 0.750199
2.24992 -0.750206 0.875235
2.25009 -1.00006 1.25005
2.25014 -0.750305 1.12521
2.25018 -0.750263 1.25015
2.25006 -0.75004 1.99995
2.25005 -1 1.99993
2.25008 -1.00003 1.74995
2.25011 -0.750097 1.74998
2.25009 -0.750072 1.87497
2.37451 -0.000360048 0.62518
2.37448 -0.12526 0.625179
2.37429 -0.12511 0.500146
2.3743 -0.000222642 0.500144
2.37384 0.000459526 0.125076
2.37389 -0.124484 0.125074
2.37381 -0.124351 0
2.37375 0.000608523 0
2.37414 -0.124913 0.375133
2.37412 -1.77004e-05 0.375132
2.37407 -0.374437 0
2.37412 -0.374521 0.125062
2.37427 -0.499557 0.125052
2.37423 -0.499492 0
2.50003 -2.49972 0
2.5 -1.99966 0
2.49993 -1.49965 0
2.49993 -1.49968 0.25001
2.24993 -1.49949 0.250011
2.24995 -1.49959 0.500015
2.24992 -1.49944 0
2.24983 -1.2494 0
2.24985 -1.24947 0.250024
2.24998 -1.4997 0.75001
2.25001 -1.49979 0.999993
2.25001 -1.24986 1.00002
2.24996 -1.24974 0.75004
2.25052 -0.000555019 1.00074
2.25037 -0.125627 1.00064
2.24988 -0.125632 0.875513
2.25003 -0.000624708 0.875572
2.24956 -0.000693666 0.750369
2.24944 -0.125599 0.750361
2.24943 -0.250507 0.750361
2.24982 -0.250612 0.875478
2.25024 -0.250659 1.00056
2.50003 -1.49996 1.74997
2.25004 -1.49986 1.24997
2.25004 -1.4999 1.49994
2.25005 -1.24993 1.24999
2.25004 -1.49993 1.74993
2.25003 -1.49994 1.99992
2.25003 -1.24997 1.99992
2.25005 -1.24996 1.74993
2.25075 -0.000520743 1.12572
2.25064 -0.125606 1.12563
2.25049 -0.250648 1.12554
2.25074 -0.00046519 1.25056
2.25067 -0.125537 1.2505
2.25055 -0.250573 1.25043
2.50001 -1.49998 2.74997
2.25002 -1.49996 2.24993
2.25001 -1.49996 2.49994
2.25003 -0.999991 2.24993
2.25002 -1.24997 2.24993
2.25001 -1.49997 2.74994
2.25001 -1.49998 2.99995
2.25001 -0.999987 2.74995
2.25 -0.999987 2.99995
2.25 -1.24998 2.99995
2.25001 -1.24998 2.74994
2.25004 -0.750028 2.12495
2.25003 -0.750013 2.24995
2.25 -0.749994 2.99995
2.25001 -0.749996 2.74995
2.25 -1.77471e-05 2.74996
2.25 -1.53656e-05 2.99995
2.25 -0.250008 2.99995
2.25001 -0.25001 2.74996
2.24957 -0.749776 0.500149
2.24978 -0.999654 0.500083
2.24945 -0.749637 0.375134
2.37441 -0.624585 0.125043
2.37438 -0.624532 0
2.24965 -0.74995 0.625184
2.25017 -0.750184 1.50005
2.2501 -1.00005 1.49999
2.2502 -0.750255 1.37511
2.25015 -0.750152 1.62501
2.2491 -0.125454 0.625245
2.24919 -0.000625862 0.625222
2.24914 -0.250318 0.625265
2.2489 -0.25005 0.50023
2.24882 -0.125182 0.500209
2.24983 -0.37553 0.875424
2.24952 -0.375397 0.75034
2.25009 -0.500487 1.00037
2.24986 -0.500411 0.875352
2.25015 -0.375601 1.00047
2.24963 -0.500278 0.750298
2.24926 -0.375199 0.625265
2.24926 -0.499884 0.500208
2.24906 -0.374956 0.500229
2.24943 -0.500095 0.625242
2.37433 -0.250027 0.500152
2.24913 -0.499665 0.375186
2.24891 -0.374686 0.375213
2.24872 -0.249729 0.375225
2.24903 -0.499455 0.250152
2.24879 -0.374415 0.250185
2.37396 0.000228347 0.250117
2.374 -0.124688 0.250116
2.37399 -0.249489 0.12507
2.37408 -0.249655 0.250114
2.37392 -0.249382 0
2.37419 -0.249847 0.375135
2.37429 -0.37481 0.37513
2.3742 -0.374652 0.250105
2.37434 -0.499661 0.250091
2.24894 -0.499285 0.125091
2.25045 -0.000300378 1.50021
2.25043 -0.125332 1.50019
2.25057 -0.125437 1.37533
2.25061 -0.000386007 1.37537
2.25049 -0.250463 1.37529
2.25039 -0.250348 1.50017
2.25036 -0.375603 1.12544
2.25025 -0.500501 1.12534
2.25043 -0.37554 1.25035
2.25032 -0.500457 1.25027
2.25041 -0.37544 1.37524
2.25027 -0.500293 1.50011
2.25032 -0.50038 1.37519
2.25033 -0.375334 1.50014
2.5 -1.24999 2.99997
2.5 -0.250006 2.99998
2.5 -9.91893e-06 2.99997
2.5 -8.59996e-06 3.49997
2.5 -6.35985e-06 3.99998
2.25 -0.500001 2.99995
2.25031 -0.000222606 1.6251
2.2503 -0.12524 1.62509
2.25028 -0.250249 1.62508
2.25019 -0.250171 1.75002
2.2502 -0.125167 1.75003
2.25021 -0.000159257 1.75003
2.2499 -1.2496 0.500038
2.25006 -1.24996 1.49996
2.25001 -0.999988 2.49994
2.25001 -1.24997 2.49994
2.25001 -0.750001 2.49995
2.25002 -0.750009 2.37495
2.25001 -0.250015 2.49996
2.25001 -0.125019 2.49996
2.25001 -2.11633e-05 2.49996
2.25001 -0.500004 2.74995
2.25001 -0.50001 2.49996
2.25001 -0.375014 2.49996
2.24924 -0.624485 0.250121
2.24917 -0.624354 0.12507
2.24913 -0.624275 0
2.24944 -0.624828 0.500179
2.24933 -0.624651 0.375156
2.25006 -0.625362 1.00029
2.2499 -0.625292 0.875283
2.24973 -0.625166 0.750248
2.24957 -0.62501 0.62521
2.25018 -0.625389 1.12526
2.25024 -0.62536 1.25021
2.25022 -0.625241 1.50008
2.25025 -0.62531 1.37514
2.25013 -0.625125 1.74999
2.25009 -0.625085 1.87497
2.25007 -0.500063 1.99996
2.25006 -0.625054 1.99996
2.25011 -0.500098 1.87498
2.25015 -0.500147 1.75
2.25021 -0.500213 1.62505
2.25018 -0.62518 1.62503
2.25013 -0.125113 1.87499
2.25013 -0.250114 1.87499
2.25008 -7.63873e-05 1.99997
2.25008 -0.125075 1.99997
2.25013 -0.000111169 1.87499
2.25008 -0.250074 1.99997
2.25012 -0.375109 1.87498
2.25018 -0.375164 1.75001
2.25008 -0.37507 1.99997
2.25025 -0.375239 1.62506
2.5 -4.50074e-06 4.49998
2.25005 -5.22042e-05 2.12496
2.25005 -0.12505 2.12496
2.25005 -0.250048 2.12496
2.25003 -0.250031 2.24996
2.25003 -0.125033 2.24996
2.25003 -3.61363e-05 2.24996
2.25001 -0.625007 2.49996
2.25005 -0.50004 2.12496
2.25004 -0.625034 2.12496
2.25003 -0.62502 2.24996
2.25003 -0.500025 2.24996
2.25002 -0.625012 2.37496
2.25002 -0.500015 2.37496
2.25005 -0.375045 2.12496
2.25003 -0.375028 2.24996
2.25002 -0.125023 2.37496
2.25002 -0.250021 2.37496
2.25002 -2.62739e-05 2.37496
2.25002 -0.375018 2.37496
1.25053 -0.0635179 0.0758665
1.31722 -0.059723 0.0397579
1.3769 -0.0226299 0
1.2717 -0.0536518 0
1.55679 -0.0682353 0.138683
1.49925 -0.0700952 0.110736
1.4996 -0.0560079 0.189122
1.58237 -0.0520857 0.167385
1.80851 -0.0590217 0.251378
1.80659 -0.0562188 0.189866
1.72245 -0.0388616 0.209375
1.73202 -0.045922 0.254126
1.74045 -0.0496604 0.0676178
1.74445 -0.0559318 0.127942
1.80655 -0.0543448 0.127409
1.80486 -0.0517166 0.0649274
1.50098 -0.0220548 0
1.55999 -0.0561039 0.0409673
1.61667 -0.0632774 0.0802131
1.5986 -0.0497845 0
1.80708 0.00201545 0.313536
1.80903 -0.0609165 0.31376
1.73549 -0.048717 0.313842
1.74308 0.00242426 0.313497
1.67134 -0.0507836 0.128815
1.68848 -0.0648427 0.185095
1.67095 -0.0479154 0
1.65313 -0.0345986 0.0959453
1.73818 -0.048736 0
1.87056 -0.0591442 0.251314
1.86961 -0.056803 0.189357
1.86925 -0.0551909 0.126859
1.80366 -0.0510998 0
1.86836 -0.0536042 0.0639677
1.86779 -0.0531905 0
1.86991 0.00175993 0.313421
1.8708 -0.0607736 0.313541
1.5101 0.000201621 0.12932
1.49531 0.00346431 0.187092
1.57913 0.000405141 0.176126
1.27419 0.00204692 0
1.25115 0.00315089 0.0562216
0.502291 0.00214786 1.49321
0.50451 0.00360482 1.43265
0.43915 0.00219023 1.43148
0.438669 0.00210663 1.49359
0.374809 0.00202786 1.49411
0.373615 0.00290716 1.43165
0.369492 0.00464985 1.37032
0.459117 -0.0139597 1.34568
0.248156 0.00242982 1.3691
0.307811 0.00395348 1.36914
0.302559 0.00634167 1.30667
0.247288 0.00298531 1.30634
0.0145016 -0.0043989 1.00091
0.0923683 -0.00523809 0.985652
0.0424873 -0.00466085 0.979282
0.0159956 0.00221694 0.944855
0.261385 -0.00378413 0.737459
0.266536 -0.00466414 0.67664
0.187483 -0.0128747 0.67785
0.180717 -0.00176727 0.732263
0.24014 0.00513556 1.00734
0.316954 0.0018269 1.00383
0.33799 0.00310297 0.925705
0.258891 0.0061176 0.938413
0.17926 0.00588207 0.933218
0.156759 0.0148528 1.00392
0.189397 -0.00425809 0.805194
0.275186 -0.000308066 0.819308
0.00621629 0.0096693 0.734641
0.0768094 0.00871846 0.73119
0.0725526 0.00471886 0.672639
0.00265152 0.00551171 0.676128
0.316718 -0.00315314 0.797955
0.318144 0.00120755 0.76108
0.129452 -0.00119365 0.732791
0.128142 -0.0062738 0.674292
0.248502 -0.00146834 0.622263
0.16884 -0.0044514 0.604508
0.123523 -0.0277884 0.604348
0.275082 0.00464658 0.865169
0.31076 -0.0159675 0.902945
0.384314 -0.00552426 0.996432
0.361371 -0.0187845 0.922594
0.108622 0.0173931 0.979781
0.130431 0.00503644 0.922188
0.185279 0.00217632 0.87574
0.0956076 -0.000684226 0.899143
0.124444 -0.000749672 0.806041
0.0819839 0.00391997 0.799076
[...]
CELL_DATA 1163
FIELD attributes 1
weightsSum 1 1163 float
1 1 1 1 1 1 1 1 1 1
1 1 1 1 1 1 1 1 1 1
1 1 1 1 1 1 1 1 1 1
1 1 1 1 1 1 1 1 1 1
1 1 1 1 1 1 1 1 1 1
1 1 1 1 1 1 1 1 1 1
1 1 1 1 1 1 1 1 1 1
1 1 1 1 1 1 1 1 1 1
1 1 1 1 1 1 1 1 1 1
1 1 1 1 1 1 1 1 1 1
1 1 1 1 1 1 1 1 1 1
1 1 1 1 1 1 1 1 1 1
1 1 1 1 1 1 1 1 1 1
1 1 1 1 1 1 1 1 1 1
1 1 1 1 1 1 1 1 1 1
1 1 1 1 1 1 1 1 1 1
1 1 1 1 1 1 1 1 1 1
1 1 1 1 1 1 1 1 1 1
1 1 1 1 1 1 1 1 1 1
1 1 1 1 1 1 1 1 1 1
1 1 1 1 1 1 1 1 1 1
1 1 1 1 1 1 1 1 1 1
1 1 1 1 1 1 1 1 1 1
1 1 1 1 1 1 1 1 1 1
1 1 1 1 1 1 1 1 1 1
1 1 1 1 1 1 1 1 1 1.02247
1.01077 1.00093 1.0009 1.01431 1 1.00001 1.07535 1.06044 1.01067 1.00356
1.00855 1.00001 1 1 1 1.00007 1 1 1.01278 1.00655
1.00297 1.00012 1.00004 1.00618 1.00027 1.00272 1.00626 1 1.00318 1.00105
1 1.00669 1.00274 1.00034 1.05694 1.10032 1.05695 1.00204 1.00029 1.0013
1.00004 1.00036 1.00158 1.00107 1 1.00002 1.00075 1.0303 1.02798 1.00148
1.00001 1.00052 1.00121 1 1.00003 1 1 1 1 1
1 1 1 1 1 1 1 1 1 1
1 1 1 1 1 1 1 1 1 1
1 1 1 1 1 1 1 1 1 1
1 1 1 1 1 1 1 1 1 1
1 1 1 1.00101 1 1 1 1.00001 1 1.00001
1 1 1 1.00022 1.00606 1.00008 1.00002 1.0005 1.00002 1.00068
1.01116 1.0007 1.05786 1.05474 1.01042 1.07975 1.00003 1.00277 1.00284 1.05271
1.00972 1.00071 1 1 1.00003 1.00191 1 1 1 1.00002
1.00001 1.00502 1.00002 1 1 1 1 1.00006 1.00046 1
1.00001 1.00155 1 1.00023 1 1 1.00479 1.01022 1.00004 1.00153
1.0046 1 1 1 1 1 1 1.00002 1.00005 1.00429
1 1 1 1.00959 1.00002 1.00015 1 1 1 1.00002
1.00001 1.00002 1.00002 1.00003 1.00003 1.00027 1 1.00175 1 1.00001
1.00017 1.00001 1.09104 1.00197 1.00314 1.00001 1.00001 1.00003 1.00001 1.00149
1 1.00367 1.00376 1.0061 1.12934 1.00092 1.00491 1.01915 1.00089 1.00026
1.00817 1.00063 1.00087 1.0603 1.00168 1.02623 1.00011 1.00077 1.00001 1.04608
1.00204 1.00009 1.00002 1.00002 1.0007 1 1.00021 1 1.00025 1.01034
1 1.13989 1 1 1 1.00001 1 1 1.09287 1.00002
1.00003 1.00431 1.00006 1.00029 1.00554 1.00028 1.00001 1.00084 1.00113 1.0024
1.00409 1.00087 1.00074 1.00026 1.00293 1 1.00032 1.01823 1.00328 1.00085
1.00312 1.00138 1.00028 1 1 1 1 1 1 1
1 1 1 1 1 1 1 1 1 1
1 1 1 1 1 1 1 1 1 1
1 1 1 1 1 1 1 1 1 1
1 1 1 1 1 1 1 1.00002 1 1.00001
1.00004 1 1 1 1.00001 1.00003 1 1 1.00001 1
1 1 1 1.00003 1.0005 1.00047 1.00003 1.00003 1.00001 1
1 1 1 1 1 1 1 1 1 1
1 1.00008 1.00382 1.00001 1.00001 1.00001 1 1 1 1
1 1 1 1 1 1 1 1 1 1
1 1 1 1 1.00001 1 1 1 1 1
1 1 1 1 1 1 1 1 1 1.00001
1 1 1.00004 1 1.00001 1.00006 1.00001 1.00001 1 1.00025
1.00003 1.00001 1.00007 1.00001 1.00001 1.00005 1.00023 1.00468 1 1.00002
1.00011 1 1 1 1 1 1 1 1 1
1 1 1 1 1 1 1 1 1 1
1 1 1 1 1 1 1.00003 1 1 1
1 1 1 1 1 1 1 1 1 1
1 1 1 1 1 1 1 1 1 1
1 1 1 1 1 1 1 1 1 1
1 1 1 1 1 1 1 1 1 1
1 1 1 1 1 1 1 1 1 1
1 1 1 1 1 1 1 1 1 1
1 1 1 1 1 1 1 1 1 1
1 1 1 1 1 1 1 1 1 1
1 1 1 1 1 1 1 1 1 1
1 1 1 1 1 1 1 1 1 1
1.01653 1.00749 1 1.00188 1.00022 1.00448 1.00458 1.00059 1.00001 1.00065
1.03312 1.00089 1.00002 1.00016 1.00004 1 1.00333 1.00705 1.03696 1.00003
1.00065 1.00026 1.0318 1 1.00073 1.00002 1.00089 1.00011 1.06394 1.01519
1.00009 1 1.00245 1.00001 1.00048 1.00001 1 1.0137 1.00866 1.00366
1.00315 1.00003 1.00006 1 1.00007 1.00077 1.0001 1.00252 1.00018 1.00005
1.01931 1.03083 1.01055 1.18815 1.01416 1.00752 1.00535 1.00027 1.00061 1.00857
1.01715 1.0125 1.00347 1.00336 1.00193 1.00135 1.01085 1 1 1.00001
1 1 1 1 1 1 1 1 1 1
1 1 1 1 1 1.00004 1.00001 1.00001 1 1
1 1 1 1 1 1.00013 1 1 1 1
1 1 1.00001 1 1 1 1 1 1 1
1 1 1 1 1 1 1 1 1 1
1 1 1 1 1 1 1 1 1 1
1 1 1 1 1 1 1 1 1 1
1 1 1 1 1 1 1 1 1 1
1 1 1 1 1 1 1 1 1 1
1 1 1.00004 1.00004 1 1 1 1.00002 1 1.00008
1 1 1 1 1 1.00053 1.00001 1.00014 1.00008 1.00005
1.00073 1.0002 1.0001 1.00004 1.00259 1 1.00046 1 1 1
1.00571 1 1 1 1.00013 1.00001 1.00007 1.01409 1 1.00009
1 1.00002 1.00002 1.00001 1.00042 1 1.0021 1.00042 1.00006 1.00006
1.00007 1 1.00001 1 1 1.00001 1.00017 1.0002 1.00132 1.00088
1 1.00001 1 1 1 1 1.00001 1.00006 1.00001 1
1.00002 1 1 1 1 1 1 1 1 1
1.00001 1.00033 1.00006 1.00032 1 1.00001 1.00001 1 1 1
1 1 1 1 1 1 1 1 1 1
1 1 1 1 1 1 1 1 1 1
1 1 1 1 1.00016 1.00017 1.0196 1.0008 1.00017 1
1.00016 1.00047 1.00004 1 1.00001 1 1 1.00001 1 1
1 1 1 1 1.00004 1 1 1.00019 1.00005 1.00005
1 1 1 1 1 1 1.00011 1 1 1.00003
1 1 1.00015 1 1.00003 1.00001 1 1 1 1
1.00003 1.00001 1 1 1 1 1 1 1 1.00001
1 1 1 1 1.00001 1 1 1 1 1
1 1 1 1 1 1 1 1 1 1
1 1 1 1 1 1 1 1 1 1
1 1 1 1 1 1 1 1 1.00001 1
1.00001 1 1
