/*--------------------------------*- C++ -*----------------------------------*\
| =========                 |                                                 |
| \\      /  F ield         | OpenFOAM: The Open Source CFD Toolbox           |
|  \\    /   O peration     | Version:  dev                                   |
|   \\  /    A nd           | Web:      www.OpenFOAM.org                      |
|    \\/     M anipulation  |                                                 |
\*---------------------------------------------------------------------------*/
FoamFile
{
    version     2.0;
    format      ascii;
    class       volScalarField;
    object      p;
}
// * * * * * * * * * * * * * * * * * * * * * * * * * * * * * * * * * * * * * //

dimensions      [0 2 -2 0 0 0 0];

internalField   nonuniform List<scalar> 4(8 5 10 12);

boundaryField
{
    movingWall
    {
        type            nonuniform List<scalar> 2(8 5);
    }

    fixedWalls
    {
        type            nonuniform List<scalar> 6(6 6 6 6 6 6);
    }

    frontAndBack
    {
        type            empty;
    }
}

// ************************************************************************* //
