/*--------------------------------*- C++ -*----------------------------------*\
| =========                 |                                                 |
| \\      /  F ield         | OpenFOAM: The Open Source CFD Toolbox           |
|  \\    /   O peration     | Version:  dev                                   |
|   \\  /    A nd           | Web:      www.OpenFOAM.org                      |
|    \\/     M anipulation  |                                                 |
\*---------------------------------------------------------------------------*/
FoamFile
{
    version     2.0;
    format      ascii;
    class       volScalarField;
    location    "20";
    object      epsilon;
}
// * * * * * * * * * * * * * * * * * * * * * * * * * * * * * * * * * * * * * //

dimensions      [0 2 -3 0 0 0 0];

internalField   nonuniform List<scalar> 
12225
(
285.513
270.772
258.125
244.127
232.787
224.097
217.69
213.656
213.993
216.484
227.428
250.312
280.392
308.923
342.67
363.692
394.952
398.993
52.5134
91.8306
107.289
115.628
125.773
138.543
155.148
173.239
193.923
217.347
246.846
280.277
319.215
353.275
394.092
425.018
474.159
536.589
20.5308
34.8834
44.6506
50.7127
55.6404
60.1698
65.3986
70.8473
77.3326
85.4844
97.8143
113.722
135.584
157.272
184.154
207.207
236.455
269.194
16.0042
19.4962
24.0554
27.6267
30.5664
33.0532
35.4232
37.6693
39.9674
42.687
47.6876
55.8499
67.6769
81.4659
97.0817
113.061
128.723
147.053
15.039
15.7163
17.3891
19.0919
20.6648
22.0823
23.3618
24.5332
25.6481
26.9965
29.2707
34.3908
41.848
51.6049
61.9547
73.5361
83.6904
95.6597
14.7899
14.8265
15.248
15.8664
16.5793
17.3022
17.9784
18.6056
19.2064
19.9728
21.1614
24.5563
29.9057
37.2809
45.0171
53.9603
61.5945
70.44
14.7661
14.6146
14.6405
14.7242
14.9405
15.2222
15.5178
15.8073
16.1064
16.5223
17.1586
19.4684
23.5353
29.2998
35.4649
42.7085
48.8989
56.0665
14.7694
14.586
14.4667
14.378
14.3688
14.391
14.4512
14.5283
14.6234
14.801
15.1222
16.7333
19.8799
24.4682
29.5008
35.5401
40.7159
46.8269
14.7692
14.5897
14.4362
14.2931
14.1859
14.1045
14.0461
13.994
13.96
13.9753
14.1282
15.2815
17.7377
21.4191
25.5512
30.6358
35.0286
40.34
14.7682
14.5922
14.4342
14.278
14.1445
14.0227
13.9177
13.8052
13.6735
13.6227
13.6909
14.5584
16.5011
19.4798
22.872
27.1688
30.9019
35.552
14.7679
14.5921
14.4347
14.2752
14.1378
14.0037
13.887
13.7475
13.5871
13.4552
13.5092
14.2303
15.8087
18.2543
21.0605
24.6899
27.87
31.9248
14.7679
14.5916
14.4349
14.2746
14.1373
14.0003
13.8822
13.7355
13.563
13.407
13.4633
14.1021
15.4571
17.5293
19.934
23.0478
25.8014
29.372
14.768
14.5912
14.4349
14.2742
14.1372
13.9992
13.8818
13.7344
13.5582
13.3908
13.442
13.9986
15.1731
16.9343
19.0075
21.6708
24.0431
27.1875
14.7678
14.5913
14.4347
14.2742
14.1367
13.9981
13.8812
13.7356
13.5592
13.3843
13.4239
13.8928
14.9096
16.392
18.1512
20.3801
22.3728
25.0049
14.7673
14.5917
14.4343
14.2745
14.1364
13.9966
13.8806
13.7371
13.5613
13.3817
13.4096
13.7761
14.6627
15.8403
17.3398
19.0821
20.7219
22.9246
14.7656
14.5943
14.4327
14.2772
14.1348
13.9955
13.8814
13.7418
13.5659
13.3852
13.411
13.6432
14.3645
15.1425
16.447
17.5399
19.0932
20.5676
14.7667
14.5921
14.4349
14.2756
14.1347
13.9961
13.8817
13.7393
13.5672
13.3875
13.4194
13.5963
14.1012
14.7463
15.5264
16.548
17.4502
18.6546
14.7656
14.5934
14.4323
14.2789
14.1292
13.9994
13.8876
13.7154
13.6054
13.4103
13.3629
13.5537
13.905
14.408
14.8819
15.5753
16.1363
17.0252
14.7606
14.601
14.4272
14.2801
14.1353
13.9932
13.8707
13.745
13.6039
13.4352
13.2805
13.396
13.3945
13.8726
14.4428
14.9481
15.2698
15.8503
14.766
14.593
14.4339
14.2768
14.1366
13.9955
13.8772
13.7545
13.6107
13.4441
13.2806
13.3328
13.5167
13.938
14.4205
15.1313
15.7586
16.6105
14.7676
14.5909
14.4347
14.2754
14.1369
13.9963
13.8774
13.7542
13.6087
13.4442
13.2822
13.3356
13.5169
13.8949
14.332
14.9789
15.5987
16.4333
14.7677
14.5909
14.434
14.2758
14.1362
13.9971
13.8776
13.7536
13.6096
13.4452
13.2845
13.3356
13.5081
13.9461
14.4439
15.244
16.0519
17.1761
14.7671
14.5919
14.4328
14.2776
14.1341
14.0037
13.8783
13.762
13.6271
13.4734
13.3287
13.3876
13.6093
14.2834
15.0707
16.395
17.7637
19.6836
14.7665
14.5919
14.4333
14.2831
14.1516
14.0332
13.9334
13.8393
13.7404
13.6402
13.5643
13.6816
14.1121
15.2763
16.6585
18.8953
21.2209
24.3677
14.7637
14.5942
14.4596
14.3607
14.3009
14.2766
14.2789
14.2975
14.315
14.3534
14.406
14.715
15.5964
17.5439
19.8827
23.4165
27.0874
31.7906
14.7569
14.6922
14.7562
14.9198
15.172
15.4663
15.7417
16.0222
16.2506
16.5318
16.8224
17.5633
19.2081
22.3501
26.0991
31.3813
36.8542
43.4503
14.9591
15.4387
16.5567
17.6971
18.6897
19.5957
20.3475
21.0441
21.6026
22.2322
22.9038
24.4689
27.3631
32.3351
38.1865
45.9153
53.8823
62.8938
16.2699
20.9495
24.9873
27.8048
29.811
31.4819
32.8745
34.2235
35.4134
36.7361
38.245
41.5434
46.7515
54.911
64.2461
75.8283
87.5294
100.003
29.9454
47.2065
54.8841
58.8876
61.7484
64.6941
67.7461
71.247
74.627
78.3212
82.6813
90.5602
100.781
115.056
130.11
147.309
163.665
179.718
165.782
160.128
154.841
149.729
144.509
140.022
135.999
132.576
128.579
125.225
124.764
129.94
140.919
158.059
176.207
198.653
219.023
240.791
10.3178
4.17816
5.64039
6.75473
7.63185
8.58489
52.8337
70.3457
86.0207
100.673
113.538
126.121
136.956
147.917
157.185
166.785
174.761
183.135
190.008
197.276
203.288
209.688
215.127
220.798
225.846
230.996
236.014
241.236
247.338
254.709
261.387
264.075
266.519
267.987
269.403
269.549
269.794
268.516
267.445
264.728
262.378
252.928
255.209
242.788
243.227
238.696
237.37
233.11
230.825
225.951
223.979
218.935
216.801
211.949
210.604
207.368
202.88
199.043
196.794
191.922
190.505
187.765
184.882
179.985
178.785
171.607
169.935
162.965
158.75
150.855
148.338
144.054
143.141
140.754
141.65
139.716
137.759
131.841
126.073
117.341
109.275
100.383
92.9806
86.3495
81.4583
76.7848
73.4534
71.4266
70.171
69.9067
68.0668
67.1238
66.6391
67.4334
68.629
66.9541
66.9338
66.9517
67.5756
68.1835
68.7074
72.2824
74.8867
74.0798
73.8708
76.5299
75.2023
75.5628
75.8873
79.3052
78.6145
82.0033
85.5719
88.6541
89.9554
88.7923
88.3218
88.8854
89.3604
89.5042
95.4884
100.643
104.111
101.635
100.756
103.801
103.986
103.226
103.062
103.489
103.768
108.042
106.515
107.445
108.161
109.489
113.695
117.808
115.34
118.001
116.605
119.881
124.789
122.618
125.156
122.525
122.507
122.281
123.08
127.55
126.08
128.491
127.386
131.021
134.425
137.13
138.805
136.914
136.273
139.287
137.399
137.955
138.231
138.541
139.704
140.364
141.004
141.466
142.752
146.121
149.496
146.564
146.221
147.434
147.436
146.307
146.18
140.076
137.325
134.785
22.4066
20.7915
27.5578
38.6276
51.5789
64.1045
75.0803
79.6589
84.0283
86.667
88.5157
90.2467
91.5338
92.9429
94.0397
95.3355
96.3757
97.5755
98.5602
99.6758
100.633
101.706
102.679
103.755
104.799
105.954
107.156
108.492
109.957
111.517
113.021
114.308
115.613
116.786
118.016
119.144
120.123
120.495
120.653
120.189
120.597
119.814
120.126
118.647
118.628
118.042
117.625
116.854
116.212
115.272
114.487
113.338
112.303
111.018
109.996
108.683
107.359
106.048
104.926
103.598
102.612
101.46
100.304
99.0313
97.9944
96.3975
94.9658
93.057
91.1369
88.8559
86.6786
84.3548
82.4507
80.6392
79.2628
77.8266
76.495
74.8495
73.0742
70.4721
67.004
62.8139
58.4066
53.9834
49.9081
46.158
42.9193
40.2654
38.1204
36.5705
35.3395
34.4445
33.6112
33.1017
32.6431
32.2616
32.0155
31.4405
31.2113
31.3838
31.485
31.1374
31.6074
31.1043
31.351
31.653
31.1475
31.6625
31.0485
31.7026
31.2507
31.2371
31.3396
31.5316
31.6926
32.4559
33.7188
32.8981
33.781
33.1164
33.0595
34.3706
34.2893
34.3103
34.9359
35.7924
36.5536
35.7505
35.5419
35.4494
36.5996
36.2129
37.274
36.4615
37.4218
36.7038
36.8055
38.0267
37.7344
38.5793
39.2053
40.5628
39.7057
39.5283
39.5661
40.4152
39.8569
39.761
39.73
39.9386
41.3002
41.0347
41.0686
42.3976
42.2174
42.3872
42.6658
43.7458
44.4304
45.6804
44.7981
44.8694
45.7809
45.9861
46.6461
48.0673
47.0594
46.9173
47.7991
48.7802
49.0911
49.929
51.1311
52.3281
53.1718
54.5195
56.012
58.9121
60.9988
70.5497
50.8073
55.144
61.1682
65.0698
67.9064
69.9033
71.6088
71.7612
71.4248
70.9565
71.7971
72.6204
73.3735
74.1966
74.9156
75.6431
76.2683
76.916
77.5185
78.189
78.878
79.6771
80.5439
81.5428
82.6355
83.859
85.1761
86.5937
88.0706
89.5763
91.0605
92.4752
93.8408
95.1132
96.2957
97.3255
98.2081
98.868
99.3703
99.6547
99.9097
100.391
100.39
100.096
99.8177
99.3619
98.8274
98.1465
97.4157
96.5614
95.6631
94.6511
93.6151
92.5049
91.3969
90.2164
89.0268
87.8105
86.6079
85.3715
84.1601
82.8946
81.5794
80.2032
78.7781
77.2325
75.6451
73.9833
72.3079
70.6139
68.989
67.4503
66.0471
64.7262
63.4934
62.2797
61.0736
59.8084
58.4836
56.9802
55.2349
53.2071
50.626
47.5378
44.1783
40.6727
37.2092
33.9724
31.0946
28.6688
26.6886
25.1249
23.903
22.9682
22.281
21.7321
21.3226
20.9898
20.7354
20.5624
20.3875
20.2262
20.0361
19.9095
19.8051
19.7758
19.6533
19.5961
19.4879
19.4633
19.3711
19.3465
19.1269
19.0586
18.9977
18.9862
19.03
19.2808
19.1642
19.3671
19.1317
19.1496
19.1397
19.1304
19.1519
19.2164
19.3034
19.3238
19.3312
19.3267
19.3738
19.3959
19.7365
19.5521
19.5624
19.5297
19.554
19.944
19.8353
19.9837
20.1435
20.2772
20.3856
20.272
20.2225
20.508
20.3648
20.4333
20.4277
20.619
21.0473
20.8343
20.7978
20.8451
20.8869
20.9301
21.3505
21.778
22.0324
22.3014
22.3631
22.5177
22.7614
22.9234
23.0618
23.3526
23.5962
23.8044
23.9897
24.2173
24.3914
24.5848
24.7959
25.0739
25.2609
25.6673
25.9833
26.8895
27.4707
31.1717
69.9023
74.2119
73.4105
69.4969
67.0534
65.7436
64.7223
64.4729
64.5487
64.9097
65.5221
66.1947
66.8206
67.4361
67.97
68.4906
68.969
69.4867
70.0318
70.6773
71.4114
72.288
73.2898
74.4494
75.7417
77.1788
78.7217
80.3596
82.0575
83.7875
85.498
87.1519
88.7278
90.1873
91.5193
92.6829
93.6824
94.4828
95.1132
95.5441
95.8664
96.357
96.3073
96.0297
95.6222
95.0546
94.3721
93.553
92.6484
91.6265
90.5463
89.3849
88.1792
86.9145
85.6242
84.2892
82.939
81.5647
80.1809
78.7601
77.3128
75.8323
74.3369
72.8337
71.3338
69.8311
68.3359
66.8468
65.3755
63.9286
62.5258
61.1803
59.8993
58.6701
57.4797
56.3079
55.1389
53.9535
52.7388
51.456
50.0639
48.5399
46.8119
44.8848
42.4909
39.6478
36.516
33.2747
30.0989
27.1521
24.5535
22.3579
20.5758
19.1748
18.1057
17.2967
16.6902
16.2327
15.8847
15.6203
15.4044
15.2255
15.0727
14.9333
14.8146
14.7071
14.6103
14.5123
14.4301
14.3465
14.2377
14.177
14.05
13.9905
13.9128
13.8302
13.8172
13.7027
13.6962
13.7043
13.5812
13.5471
13.6077
13.4945
13.4606
13.4326
13.5569
13.4462
13.493
13.4901
13.5102
13.3584
13.3326
13.2929
13.2685
13.2349
13.3963
13.3026
13.3931
13.4223
13.4267
13.4087
13.4147
13.3038
13.2697
13.271
13.3583
13.436
13.3189
13.2862
13.4066
13.6544
13.4995
13.5741
13.642
13.4966
13.4726
13.4935
13.5379
13.5909
13.6367
13.7267
13.888
14.0066
14.0717
14.2139
14.3342
14.4045
14.5586
14.6643
14.7534
14.9002
15.0705
15.2403
15.2987
15.5022
15.6782
16.127
16.4079
18.0004
76.2131
75.1824
72.1374
66.5087
62.7834
61.12
60.6367
60.8206
61.2971
61.9285
62.6712
63.4405
64.1543
64.8433
65.4782
66.1195
66.7624
67.4754
68.2606
69.1777
70.2228
71.4382
72.8084
74.3522
76.0396
77.892
79.8659
81.9369
84.0587
86.1865
88.2655
90.2487
92.1031
93.7839
95.2749
96.5407
97.5863
98.3878
98.999
99.3755
99.9426
99.8931
99.5834
99.0525
98.3583
97.4921
96.4923
95.3368
94.0296
92.7333
91.3926
89.9844
88.5364
87.0385
85.5171
83.9667
82.4057
80.8178
79.2151
77.5939
75.9735
74.3555
72.7557
71.1765
69.6254
68.099
66.6002
65.1253
63.6817
62.2732
60.9052
59.5794
58.2964
57.0495
55.83
54.6269
53.4297
52.2278
51.0126
49.7621
48.4503
47.0555
45.5288
43.8513
41.9557
39.6768
37.0575
34.1664
31.0609
27.9972
25.0968
22.4828
20.2504
18.3879
16.9044
15.7532
14.8745
14.2134
13.7159
13.3387
13.0468
12.8141
12.6243
12.4616
12.3215
12.1973
12.0869
11.986
11.8941
11.8076
11.7251
11.6424
11.5693
11.4748
11.3987
11.2999
11.2433
11.1778
11.1329
11.0814
11.0437
11.0069
10.9936
10.9245
10.9078
10.8549
10.8211
10.7949
10.7011
10.6703
10.6971
10.5858
10.5471
10.5511
10.5647
10.4405
10.4133
10.3868
10.3669
10.3437
10.4209
10.339
10.308
10.2741
10.3063
10.3341
10.2354
10.2181
10.2623
10.1792
10.2343
10.3426
10.2258
10.2775
10.1957
10.1689
10.1381
10.1182
10.2091
10.135
10.1972
10.2686
10.2118
10.1977
10.215
10.2548
10.4008
10.4869
10.5823
10.5718
10.7285
10.7384
10.7671
10.8278
10.9243
11.1398
11.2513
11.4942
11.6219
12.4467
79.2826
70.5767
66.1727
61.8934
59.8929
59.3119
59.4492
60.0468
60.8408
61.7172
62.6271
63.5509
64.4408
65.3312
66.2067
67.1256
68.0925
69.175
70.383
71.7783
73.364
75.1835
77.2246
79.5045
81.9907
84.6572
87.4326
90.2668
93.0872
95.8343
98.4606
100.907
103.126
105.068
106.711
108.014
109.008
109.611
110.278
110.847
110.712
110.213
109.456
108.463
107.29
105.942
104.467
102.867
101.186
99.432
97.6353
95.7883
93.9178
92.0188
90.1155
88.1982
86.282
84.3637
82.4646
80.5841
78.7373
76.9226
75.1504
73.4179
71.7302
70.082
68.4715
66.8902
65.3528
63.8573
62.4027
60.9856
59.6034
58.2513
56.9234
55.613
54.3133
53.017
51.72
50.4034
49.0509
47.6455
46.1477
44.5311
42.7716
40.6836
38.3177
35.7187
32.921
29.9904
27.0396
24.2076
21.5562
19.2844
17.4033
15.8904
14.704
13.8037
13.1041
12.5708
12.1621
11.8445
11.5922
11.3867
11.2143
11.0676
10.9384
10.8247
10.7219
10.6268
10.5408
10.456
10.3809
10.2979
10.2176
10.1393
10.0754
10.01
9.9486
9.88272
9.8334
9.76792
9.72241
9.68349
9.6482
9.61308
9.56942
9.52948
9.47654
9.44413
9.38351
9.34034
9.3034
9.21349
9.17581
9.12895
9.09583
9.13658
9.0333
8.98736
8.96697
8.99052
8.99207
8.88996
8.85885
8.87412
8.83814
8.82888
8.74566
8.79521
8.70524
8.75578
8.65627
8.63777
8.67559
8.68213
8.66244
8.6367
8.64522
8.53977
8.51221
8.50495
8.58597
8.50828
8.51611
8.65519
8.58173
8.57389
8.60319
8.60699
8.74855
8.91143
8.8244
8.81016
8.8827
8.9929
9.03561
9.17846
9.31971
9.64116
84.5916
64.7971
60.778
59.0521
58.6093
58.9076
59.5516
60.4985
61.6142
62.8609
64.1472
65.4751
66.8204
68.2277
69.674
71.2131
72.8525
74.662
76.6552
78.8968
81.3882
84.1704
87.2184
90.5358
94.0649
97.767
101.568
105.399
109.164
112.778
116.153
119.207
121.877
124.097
125.856
127.089
128.151
129.162
129.268
128.858
128.045
126.871
125.421
123.717
121.828
119.766
117.593
115.315
112.98
110.593
108.189
105.766
103.353
100.941
98.5492
96.1743
93.84
91.5447
89.3052
87.116
84.988
82.9148
80.9025
78.9454
77.0456
75.1965
73.3974
71.6409
69.9303
68.2619
66.6346
65.0437
63.4865
61.9586
60.4558
58.9732
57.5057
56.0475
54.5931
53.1304
51.6467
50.1282
48.5365
46.8491
45.0489
42.9394
40.5897
38.0577
35.3866
32.5942
29.7163
26.8363
24.0563
21.4993
19.2398
17.3234
15.7577
14.4825
13.508
12.7656
12.1996
11.766
11.429
11.1634
10.9475
10.7701
10.6176
10.487
10.371
10.2666
10.173
10.0851
10.0043
9.9243
9.84497
9.77012
9.6998
9.6329
9.57049
9.49899
9.43392
9.37468
9.32614
9.28355
9.23532
9.18612
9.13025
9.07812
9.02172
8.97697
8.92457
8.88072
8.81852
8.76987
8.68595
8.64693
8.63709
8.61851
8.52503
8.49249
8.45468
8.47533
8.40429
8.38557
8.34009
8.31545
8.21865
8.18253
8.13475
8.10596
8.05885
8.03257
7.99118
7.96668
8.01825
8.01677
7.98188
7.96602
7.87126
7.83197
7.80395
7.78202
7.76591
7.79996
7.82564
7.76607
7.75106
7.73412
7.81635
7.74645
7.82494
7.92545
7.83222
7.81103
7.79941
7.81631
7.88839
8.02999
8.14455
8.26689
86.448
61.2341
57.6591
57.2887
58.11
59.1234
60.5076
62.1774
63.9905
65.9209
67.9159
69.9793
72.0705
74.214
76.4139
78.7393
81.2066
83.9027
86.8495
90.1294
93.7467
97.7508
102.107
106.815
111.792
116.979
122.254
127.51
132.601
137.395
141.762
145.582
148.763
151.247
152.911
154.384
155.581
155.538
154.783
153.453
151.673
149.496
147.026
144.297
141.4
138.356
135.236
132.053
128.86
125.66
122.493
119.353
116.267
113.227
110.262
107.366
104.559
101.832
99.1955
96.6398
94.1707
91.778
89.4644
87.2201
85.0457
82.9327
80.8795
78.8785
76.9281
75.0225
73.1596
71.3341
69.5431
67.7826
66.0492
64.3389
62.6476
60.9708
59.3029
57.6343
55.9542
54.2511
52.4868
50.6403
48.6968
46.452
43.9859
41.3636
38.6418
35.8548
33.0118
30.1369
27.2891
24.5561
22.0225
19.7607
17.815
16.1921
14.8806
13.8448
13.0396
12.4185
11.9409
11.5715
11.282
11.0509
10.861
10.7025
10.5676
10.4493
10.3459
10.2513
10.1645
10.0804
9.99817
9.91915
9.84301
9.76986
9.70118
9.63242
9.56205
9.49581
9.4306
9.36918
9.30648
9.2472
9.18001
9.1168
9.05163
8.99602
8.94756
8.89763
8.84804
8.78953
8.7301
8.67198
8.62811
8.58686
8.53927
8.49421
8.47102
8.43739
8.38986
8.3378
8.28589
8.24362
8.16062
8.11411
8.05644
8.02755
7.93747
7.89838
7.85626
7.82917
7.81334
7.83666
7.75833
7.72112
7.68187
7.64458
7.6488
7.6412
7.53812
7.52173
7.54561
7.55169
7.45699
7.51169
7.4382
7.4757
7.50829
7.44157
7.39301
7.44094
7.35866
7.40017
7.34417
7.41762
7.46618
7.6231
86.1122
59.9435
56.2994
56.6474
58.1836
60.2483
62.5811
65.0661
67.6642
70.404
73.2306
76.1384
79.0884
82.1221
85.24
88.5311
92.0256
95.841
100.014
104.656
109.771
115.425
121.563
128.174
135.138
142.358
149.652
156.852
163.738
170.115
175.785
180.562
184.348
186.827
188.911
190.422
190.319
189.14
187.149
184.47
181.273
177.647
173.733
169.593
165.336
160.997
156.657
152.329
148.07
143.877
139.789
135.8
131.942
128.205
124.611
121.145
117.817
114.613
111.537
108.571
105.719
102.965
100.308
97.736
95.2459
92.827
90.4767
88.1853
85.9496
83.7621
81.6193
79.5154
77.447
75.41
73.4016
71.4184
69.4572
67.5142
65.5849
63.6609
61.7328
59.79
57.7959
55.7287
53.5795
51.1309
48.4671
45.6609
42.7764
39.8565
36.9283
34.0055
31.1018
28.2578
25.5327
22.9966
20.7136
18.7265
17.0524
15.6819
14.5873
13.7287
13.0659
12.5564
12.165
11.8588
11.6159
11.4189
11.2587
11.1203
11.0042
10.9009
10.8055
10.712
10.6224
10.5353
10.4506
10.3687
10.292
10.2162
10.137
10.0563
9.97423
9.89306
9.81254
9.7348
9.65597
9.57982
9.50706
9.43752
9.37569
9.31149
9.24894
9.18136
9.11627
9.05411
8.99479
8.94179
8.88412
8.83175
8.7784
8.72607
8.66506
8.6025
8.54223
8.48778
8.42554
8.37918
8.3057
8.25487
8.20977
8.12678
8.08926
8.09189
8.06257
8.03012
7.97434
7.88475
7.88
7.81704
7.78709
7.70829
7.66007
7.67998
7.62336
7.62521
7.53003
7.4965
7.45607
7.42463
7.43109
7.42264
7.32742
7.30232
7.26892
7.27778
7.23792
7.23241
7.17068
7.24323
88.6516
59.0577
55.5496
56.5532
59.0422
62.0615
65.2609
68.5888
72.0259
75.6296
79.3849
83.2561
87.1937
91.2499
95.4336
99.8646
104.595
109.783
115.485
121.847
128.873
136.642
145.076
154.154
163.701
173.582
183.535
193.315
202.605
211.113
218.529
224.623
228.786
231.955
234.29
234.414
232.954
230.182
226.388
221.762
216.555
210.916
205.041
199.023
193
187.012
181.15
175.422
169.883
164.531
159.401
154.481
149.79
145.307
141.041
136.967
133.087
129.376
125.832
122.432
119.173
116.035
113.012
110.089
107.26
104.512
101.839
99.2308
96.6823
94.1841
91.7321
89.3191
86.9416
84.5953
82.2775
79.9855
77.7169
75.4687
73.2375
71.0168
68.7976
66.5704
64.3021
61.9679
59.5592
56.8669
53.9544
50.9016
47.7806
44.6417
41.5166
38.4327
35.4086
32.4495
29.5761
26.8311
24.2725
21.9569
19.9259
18.2001
16.7756
15.632
14.7347
14.0415
13.5102
13.1002
12.7805
12.5302
12.3324
12.1688
12.0358
11.9211
11.8157
11.712
11.6161
11.5219
11.4306
11.343
11.2597
11.175
11.0833
10.987
10.8888
10.7892
10.6914
10.5952
10.5002
10.4079
10.3202
10.2353
10.1549
10.074
9.99276
9.9102
9.82835
9.74978
9.6733
9.60167
9.52795
9.45707
9.38557
9.31364
9.23968
9.16739
9.09663
9.02973
8.96383
8.90543
8.83983
8.78343
8.72789
8.66906
8.61613
8.56455
8.5124
8.45768
8.39723
8.33987
8.29345
8.2233
8.16445
8.12688
8.04068
8.0442
8.01054
7.97436
7.91188
7.80915
7.79322
7.70183
7.67655
7.63736
7.56811
7.54777
7.4966
7.4424
7.37313
7.32786
7.2223
7.19114
93.1221
60.2684
55.9232
57.311
60.5083
64.2987
68.2902
72.4157
76.666
81.111
85.7704
90.6386
95.6277
100.796
106.161
111.881
118.031
124.821
132.323
140.721
150.015
160.305
171.486
183.536
196.236
209.419
222.737
235.862
248.346
259.758
269.665
277.317
282.511
286.789
288.139
286.998
283.781
278.815
272.522
265.222
257.293
248.971
240.529
232.102
223.851
215.832
208.138
200.775
193.788
187.158
180.902
174.985
169.411
164.143
159.173
154.467
150.013
145.778
141.752
137.905
134.228
130.693
127.294
124.008
120.828
117.736
114.726
111.785
108.905
106.077
103.294
100.549
97.838
95.1562
92.5015
89.8713
87.2643
84.6785
82.1117
79.5593
77.0132
74.4644
71.8858
69.2473
66.538
63.5733
60.3748
57.0307
53.6205
50.1994
46.8063
43.4752
40.2322
37.0906
34.0522
31.126
28.3411
25.7447
23.3853
21.305
19.5255
18.0519
16.8636
15.9275
15.2018
14.6432
14.2126
13.8827
13.6282
13.4273
13.2646
13.1331
13.0187
12.907
12.8114
12.7137
12.6227
12.5368
12.4515
12.3642
12.2629
12.1583
12.0544
11.9513
11.8431
11.7367
11.6335
11.5323
11.4341
11.338
11.2422
11.1453
11.0464
10.9476
10.8485
10.752
10.6568
10.5645
10.4714
10.3787
10.2867
10.1937
10.1013
10.0102
9.92121
9.83519
9.75217
9.67377
9.59624
9.52301
9.45115
9.38144
9.31222
9.23959
9.16901
9.10105
9.03262
8.96817
8.90586
8.83913
8.77395
8.71677
8.65301
8.60051
8.54371
8.48679
8.42179
8.35194
8.29196
8.22103
8.15011
8.08125
8.00867
7.93294
7.86101
7.77208
7.67265
7.60369
7.52471
7.43665
101.514
62.2829
57.1913
58.8201
62.4524
66.8069
71.4367
76.2523
81.2235
86.4165
91.8478
97.6079
103.618
109.914
116.504
123.586
131.248
139.751
149.172
159.74
171.444
184.421
198.553
213.853
230.082
247.084
264.445
281.759
298.425
313.803
327.3
337.433
344.503
349.485
350.49
348.033
342.662
334.882
325.341
314.565
303.118
291.373
279.707
268.312
257.391
247.001
237.224
228.044
219.475
211.469
204.013
197.048
190.554
184.473
178.783
173.431
168.395
163.631
159.119
154.821
150.72
146.786
143.003
139.348
135.807
132.361
129.002
125.713
122.486
119.31
116.177
113.079
110.011
106.97
103.953
100.958
97.984
95.0312
92.0983
89.1832
86.2785
83.3761
80.4562
77.482
74.4391
71.1803
67.6667
63.9981
60.2599
56.5138
52.8009
49.1625
45.6317
42.2278
38.9618
35.8314
32.8352
29.9929
27.3414
24.9235
22.7796
20.9346
19.3914
18.1372
17.1425
16.3714
15.7749
15.315
14.9712
14.695
14.4713
14.3153
14.1887
14.0521
13.9513
13.8442
13.7583
13.681
13.6048
13.5391
13.4269
13.3314
13.2543
13.1836
13.0704
12.9801
12.9003
12.8096
12.721
12.6344
12.5384
12.4394
12.3339
12.23
12.123
12.0151
11.9064
11.7976
11.6868
11.5738
11.4607
11.3462
11.2321
11.1181
11.0058
10.8959
10.7895
10.6868
10.5873
10.4911
10.3976
10.3071
10.2185
10.1282
10.039
9.95243
9.8667
9.78345
9.7014
9.61946
9.538
9.45811
9.37853
9.30031
9.22312
9.14478
9.06503
8.98228
8.90252
8.81741
8.72993
8.63973
8.55068
8.4475
8.35145
8.23993
8.13706
8.01635
7.93666
7.78771
109.943
66.4626
59.9177
61.1126
64.7886
69.4338
74.4958
79.8278
85.3761
91.1942
97.2765
103.716
110.523
117.817
125.541
133.9
142.972
153.058
164.223
176.742
190.595
205.981
222.799
241.16
260.871
281.863
303.723
326.017
347.989
368.733
387.353
401.77
411.996
418.554
419.817
416.234
408.512
397.422
383.949
368.93
353.208
337.357
321.889
307.067
293.116
280.084
268.024
256.881
246.629
237.18
228.484
220.449
213.025
206.131
199.724
193.733
188.124
182.837
177.845
173.1
168.579
164.243
160.075
156.043
152.134
148.323
144.601
140.949
137.357
133.812
130.307
126.832
123.384
119.956
116.549
113.161
109.792
106.442
103.114
99.8054
96.512
93.2262
89.9351
86.5966
83.1931
79.6197
75.7694
71.7501
67.6577
63.5545
59.488
55.501
51.6344
47.9136
44.3533
40.9577
37.7251
34.6473
31.7351
29.0123
26.5184
24.2871
22.3449
20.7029
19.3573
18.2853
17.4355
16.7686
16.2816
15.8655
15.5312
15.3272
15.1799
14.9187
14.7705
14.6327
14.5302
14.4563
14.3829
14.4218
14.2174
14.1601
14.1959
14.2053
14.0032
14.0331
14.0523
13.984
13.9503
13.9237
13.8513
13.7826
13.6865
13.6071
13.5099
13.4032
13.2972
13.1897
13.0746
12.9536
12.8294
12.7014
12.5706
12.4373
12.3035
12.1707
12.0402
11.9126
11.7882
11.6671
11.5491
11.4339
11.3216
11.2096
11.0983
10.9882
10.879
10.7711
10.6644
10.5584
10.4533
10.3484
10.2453
10.1422
10.0414
9.9393
9.83753
9.73344
9.63026
9.52332
9.4151
9.30152
9.19023
9.06439
8.94687
8.80784
8.69409
8.53687
8.44232
8.2533
119.957
72.4007
63.8661
64.2275
67.595
72.2263
77.4576
83.09
89.025
95.2951
101.872
108.836
116.176
124.06
132.58
141.881
151.983
163.192
175.541
189.345
204.568
221.495
240.091
260.638
283.099
307.621
333.943
361.678
389.987
417.683
443.329
464.581
480.238
489.92
492.604
488.637
478.827
464.3
446.513
426.75
406.223
385.772
366.077
347.486
330.246
314.39
299.931
286.762
274.804
263.916
254.001
244.927
236.611
228.942
221.855
215.26
209.106
203.323
197.87
192.693
187.76
183.028
178.474
174.061
169.774
165.587
161.486
157.452
153.474
149.538
145.635
141.756
137.897
134.054
130.226
126.413
122.617
118.839
115.084
111.351
107.638
103.939
100.244
96.5142
92.7257
88.8152
84.6088
80.2163
75.7482
71.2657
66.821
62.4612
58.2288
54.1548
50.2585
46.5493
43.0281
39.6901
36.5245
33.529
30.7177
28.1206
25.7716
23.7057
21.9486
20.4838
19.2982
18.361
17.6293
17.0587
16.6173
16.2923
16.0221
15.8219
15.5334
15.3904
15.2602
15.2935
15.1053
15.1068
14.9981
14.9727
14.725
14.6581
14.6245
14.5713
14.7679
14.5877
14.7432
14.8891
14.8489
14.8964
14.7839
14.8126
14.7327
14.6383
14.585
14.5281
14.4392
14.3402
14.2354
14.1151
13.9849
13.847
13.704
13.5584
13.4115
13.2648
13.1195
12.9767
12.8362
12.6979
12.562
12.4267
12.2918
12.1571
12.0224
11.8879
11.7543
11.6213
11.4893
11.3575
11.2277
11.0979
10.9699
10.8411
10.7126
10.5829
10.4532
10.3206
10.1875
10.0481
9.91133
9.76079
9.62109
9.4551
9.32144
9.13497
9.02046
8.80086
130.077
79.6768
68.7477
67.9469
70.6243
74.9677
80.1434
85.8712
92.0129
98.5743
105.49
112.816
120.496
128.686
137.425
147.08
157.578
169.201
181.958
196.285
211.675
228.652
247.391
268.446
292.076
318.814
348.83
381.948
417.242
453.35
488.106
518.844
543.178
558.051
563.964
561.145
550.144
532.562
510.471
485.757
460.132
434.796
410.644
388.136
367.536
348.856
332.045
316.937
303.375
291.163
280.143
270.143
261.033
252.684
244.995
237.867
231.224
224.993
219.114
213.534
208.206
203.092
198.152
193.359
188.684
184.108
179.61
175.175
170.786
166.433
162.101
157.789
153.487
149.198
144.914
140.644
136.387
132.147
127.93
123.739
119.575
115.431
111.301
107.152
102.951
98.68
94.0788
89.3049
84.4318
79.5543
74.7153
69.9685
65.3562
60.9115
56.6555
52.6034
48.7582
45.1181
41.6753
38.4145
35.3206
32.4007
29.6774
27.195
24.9957
23.096
21.5147
20.2307
19.2142
18.4088
17.7964
17.3216
16.9405
16.6694
16.3587
16.1615
15.975
15.8473
15.8521
15.6061
15.455
15.3653
15.2318
15.1672
15.2991
15.0328
14.99
15.0105
15.2271
15.4013
15.1797
15.4526
15.2339
15.4574
15.2607
15.1954
15.3703
15.5066
15.4698
15.4597
15.4416
15.3591
15.263
15.1523
15.027
14.8935
14.748
14.597
14.4435
14.2899
14.1361
13.9822
13.8288
13.6747
13.5198
13.3636
13.2061
13.0475
12.8887
12.7296
12.5713
12.413
12.2563
12.0995
11.9438
11.7876
11.6312
11.4744
11.3172
11.1579
10.9986
10.8333
10.6709
10.4955
10.3327
10.1425
9.98621
9.77546
9.63824
9.39604
140.012
88.81
75.3619
73.1966
75.012
78.8676
83.8107
89.4938
95.6958
102.382
109.434
116.892
124.626
132.772
141.255
150.432
160.376
171.763
183.705
196.999
211.105
226.776
244.057
263.807
286.409
313.834
346.287
384.076
426.676
472.689
519.153
562.192
598.466
621.448
632.144
632.224
620.941
600.577
574.107
544.196
513.244
482.858
454.215
427.846
404.047
382.747
363.838
347.041
332.138
318.837
306.938
296.199
286.473
277.579
269.417
261.848
254.805
248.18
241.929
235.972
230.277
224.783
219.466
214.276
209.205
204.209
199.292
194.418
189.588
184.772
179.978
175.182
170.398
165.609
160.828
156.059
151.284
146.545
141.808
137.124
132.452
127.831
123.212
118.61
113.96
109.248
104.244
99.0293
93.7382
88.4365
83.1869
78.0398
73.0374
68.2109
63.584
59.1707
54.9792
51.0091
47.255
43.7018
40.3322
37.1236
34.0746
31.2142
28.5929
26.2544
24.2478
22.5691
21.2045
20.1213
19.2639
18.5951
18.0559
17.6583
17.2749
17.0005
16.7869
16.5706
16.4783
16.2338
16.1111
15.9904
15.731
15.6514
15.72
15.4543
15.3997
15.3978
15.571
15.6985
15.4469
15.7117
15.4679
15.4459
15.7204
15.4692
15.4631
15.8417
15.6421
15.9293
16.1537
16.1141
16.1297
16.1109
16.0548
15.984
15.863
15.7326
15.595
15.4514
15.3007
15.1446
14.9847
14.8213
14.6543
14.4835
14.3095
14.1325
13.9536
13.7732
13.5924
13.4111
13.2304
13.0493
12.8685
12.6873
12.5055
12.3233
12.1408
11.9567
11.7729
11.5842
11.3989
11.2017
11.0178
10.8081
10.6313
10.4033
10.2449
9.99007
148.158
99.5057
83.9946
80.4281
81.246
84.3021
88.7169
94.0431
100.014
106.55
113.485
120.8
128.35
136.276
144.72
153.698
163.082
173.465
183.638
194.789
206.455
219.549
234.319
251.854
272.931
299.156
332.462
374.089
423.728
479.886
538.911
595.497
643.57
679.081
693.925
696.347
684.215
660.554
629.336
594.163
558.087
523.137
490.654
461.207
435.011
411.9
391.637
373.843
358.199
344.345
332.015
320.93
310.907
301.744
293.329
285.51
278.213
271.324
264.798
258.547
252.546
246.724
241.063
235.52
230.047
224.661
219.306
214.009
208.712
203.445
198.156
192.883
187.582
182.293
176.996
171.696
166.419
161.13
155.894
150.667
145.505
140.358
135.264
130.164
125.045
119.863
114.397
108.745
103.018
97.2975
91.6475
86.1151
80.7416
75.5551
70.5788
65.8249
61.3026
57.0113
52.9491
49.1015
45.453
41.98
38.6639
35.5074
32.5498
29.8455
27.4576
25.405
23.6913
22.2964
21.1772
20.2807
19.5557
18.9811
18.4809
18.0708
17.7428
17.5011
17.2582
17.0352
16.8389
16.6261
16.385
16.2591
16.2242
15.9712
15.877
15.9233
15.9311
15.9051
15.7011
15.8478
15.6746
15.6128
15.5951
15.5467
15.5358
15.6384
15.6575
15.7726
16.2029
15.9793
16.1839
16.3795
16.4861
16.5872
16.4797
16.4252
16.3561
16.2624
16.1401
16.0014
15.8513
15.6925
15.5251
15.3504
15.1696
14.9836
14.7937
14.6008
14.4059
14.2094
14.0124
13.8142
13.6157
13.4164
13.2162
13.0155
12.8145
12.6122
12.4106
12.2052
12.0037
11.7924
11.5939
11.3735
11.1827
10.9485
10.7741
10.521
152.646
110.493
94.0287
89.5652
89.674
91.9289
95.7833
100.707
106.404
112.766
119.692
127.281
135.104
143.012
150.945
159.067
167.633
176.902
185.587
194.232
202.725
212.645
224.411
239.238
258.499
284.617
320.154
365.801
422.765
489.022
560.089
628.865
687.588
731.09
748.184
751.038
736.538
708.718
672.572
632.548
592.179
553.75
518.61
487.26
459.762
435.816
415.045
396.97
381.185
367.272
354.917
343.827
333.761
324.564
316.056
308.148
300.699
293.661
286.921
280.462
274.192
268.107
262.144
256.259
250.457
244.665
238.938
233.199
227.495
221.756
216.031
210.259
204.494
198.692
192.901
187.101
181.304
175.524
169.769
164.055
158.384
152.761
147.172
141.608
136.008
130.359
124.431
118.337
112.188
106.065