/*--------------------------------*- C++ -*----------------------------------*\
| =========                 |                                                 |
| \\      /  F ield         | OpenFOAM: The Open Source CFD Toolbox           |
|  \\    /   O peration     | Version:  dev                                   |
|   \\  /    A nd           | Web:      www.OpenFOAM.org                      |
|    \\/     M anipulation  |                                                 |
\*---------------------------------------------------------------------------*/
FoamFile
{
    version     2.0;
    format      ascii;
    class       volScalarField;
    location    "20";
    object      k;
}
// * * * * * * * * * * * * * * * * * * * * * * * * * * * * * * * * * * * * * //

dimensions      [0 2 -2 0 0 0 0];

internalField   nonuniform List<scalar> 
12225
(
0.362811
0.344046
0.327919
0.31025
0.295759
0.28439
0.276698
0.271544
0.271838
0.274452
0.281491
0.300402
0.334358
0.36598
0.4107
0.439567
0.479929
0.513323
0.440256
0.468849
0.462432
0.450028
0.452357
0.460605
0.478673
0.501834
0.529865
0.560578
0.601024
0.645664
0.702593
0.750683
0.813825
0.854662
0.925613
0.995212
0.390547
0.417818
0.420506
0.41731
0.412416
0.40884
0.409293
0.41163
0.416803
0.426075
0.446957
0.48191
0.533616
0.582598
0.645121
0.688725
0.75065
0.796928
0.37753
0.386929
0.391501
0.391473
0.390465
0.388239
0.386317
0.384055
0.383494
0.384681
0.396263
0.424855
0.468256
0.515175
0.567017
0.613066
0.659144
0.704288
0.374556
0.37606
0.37843
0.378695
0.378325
0.377254
0.375829
0.373343
0.371022
0.371152
0.379708
0.406204
0.44563
0.491408
0.537376
0.583797
0.622991
0.66671
0.373812
0.372701
0.372635
0.372363
0.371761
0.370806
0.369698
0.367627
0.365148
0.36498
0.372016
0.39676
0.434
0.478786
0.523226
0.569936
0.608491
0.651069
0.373776
0.371753
0.370365
0.369253
0.368214
0.367106
0.366025
0.364067
0.361718
0.361383
0.36722
0.389562
0.424724
0.468479
0.513145
0.560707
0.60029
0.643301
0.373807
0.371586
0.36961
0.367955
0.366466
0.365131
0.363859
0.361922
0.35958
0.359042
0.363766
0.383423
0.41595
0.457977
0.502557
0.550888
0.591409
0.636084
0.373814
0.371589
0.369415
0.367518
0.365726
0.364219
0.362671
0.360817
0.358277
0.357513
0.361243
0.378256
0.407767
0.447151
0.490305
0.538525
0.579508
0.626051
0.373813
0.371598
0.369382
0.367411
0.365471
0.363874
0.362148
0.360268
0.357567
0.356627
0.359513
0.374178
0.400556
0.436758
0.477262
0.524064
0.56438
0.612198
0.373815
0.371592
0.369377
0.367386
0.365394
0.363767
0.361962
0.360044
0.357231
0.356218
0.358481
0.371212
0.394598
0.427404
0.464632
0.508918
0.547467
0.595103
0.373819
0.37158
0.36938
0.367379
0.36538
0.363736
0.361917
0.359986
0.357128
0.356073
0.35797
0.369247
0.390103
0.4198
0.453743
0.495114
0.531229
0.577539
0.373827
0.371562
0.369391
0.367361
0.365391
0.363704
0.361925
0.359997
0.357158
0.35599
0.357329
0.366991
0.385112
0.411603
0.44189
0.479915
0.51312
0.557268
0.373834
0.371545
0.369408
0.367329
0.365425
0.363627
0.361973
0.359983
0.357538
0.355461
0.356401
0.364361
0.379538
0.402475
0.428607
0.462539
0.492078
0.53286
0.373834
0.371541
0.369413
0.367318
0.365431
0.36359
0.361963
0.360016
0.35765
0.35533
0.355654
0.361698
0.37401
0.393193
0.4152
0.444565
0.470128
0.506296
0.373811
0.371578
0.369382
0.367368
0.365373
0.363639
0.36186
0.360178
0.357821
0.355328
0.354978
0.359154
0.368752
0.384608
0.402762
0.427754
0.449454
0.480462
0.373801
0.371589
0.36937
0.367379
0.365358
0.363633
0.361847
0.360222
0.357909
0.35534
0.35467
0.357699
0.365593
0.378943
0.394396
0.415615
0.434149
0.460604
0.373806
0.371581
0.369375
0.367368
0.36536
0.36362
0.361866
0.360286
0.358003
0.355419
0.354574
0.357029
0.364071
0.375942
0.38975
0.408393
0.424719
0.44813
0.373849
0.371514
0.369437
0.367319
0.365435
0.363543
0.361942
0.36027
0.35829
0.356026
0.353977
0.354968
0.359685
0.369269
0.380666
0.396779
0.41098
0.431768
0.373845
0.371524
0.369423
0.367321
0.365443
0.363556
0.361956
0.360265
0.358301
0.356031
0.353898
0.35458
0.357842
0.365096
0.37377
0.386786
0.398632
0.415835
0.373848
0.371518
0.369432
0.367312
0.365453
0.363565
0.361955
0.360265
0.358278
0.356029
0.353919
0.354645
0.357611
0.364002
0.371708
0.383375
0.394418
0.41036
0.373841
0.371525
0.369427
0.367318
0.365454
0.363575
0.361962
0.360248
0.358262
0.355987
0.353966
0.354882
0.358218
0.365748
0.374585
0.388521
0.401807
0.421451
0.373821
0.371559
0.369412
0.367338
0.365456
0.363618
0.361997
0.360261
0.358376
0.355725
0.354653
0.356011
0.36071
0.371345
0.383665
0.403305
0.422
0.449671
0.373812
0.371574
0.369399
0.367428
0.365532
0.36388
0.362249
0.360749
0.35865
0.35622
0.355315
0.357728
0.364936
0.380089
0.397703
0.424974
0.450901
0.488143
0.373809
0.371572
0.369584
0.367904
0.366298
0.364949
0.363541
0.362252
0.360216
0.357815
0.357024
0.360854
0.371219
0.391693
0.415314
0.450462
0.483767
0.529444
0.373782
0.371993
0.3711
0.370266
0.369348
0.368352
0.367104
0.36583
0.363552
0.360853
0.360147
0.365707
0.379531
0.405404
0.434855
0.476873
0.516616
0.568205
0.374359
0.37558
0.377779
0.377903
0.377358
0.376059
0.374067
0.372028
0.368924
0.365748
0.365176
0.372631
0.39004
0.42089
0.45558
0.502899
0.547857
0.602679
0.379125
0.394337
0.398401
0.396855
0.39309
0.388414
0.384482
0.381238
0.378045
0.376292
0.37684
0.387002
0.408827
0.444608
0.484478
0.535887
0.58511
0.641062
0.408529
0.427478
0.422738
0.411976
0.403659
0.398871
0.399454
0.401729
0.406346
0.413194
0.421425
0.438512
0.465781
0.505461
0.547947
0.598849
0.647082
0.697429
0.36602
0.353551
0.341858
0.330524
0.319106
0.308951
0.299979
0.292878
0.285441
0.278396
0.273181
0.276242
0.289782
0.319175
0.352333
0.396818
0.44026
0.487302
0.0335192
0.0619228
0.0858065
0.108744
0.128371
0.144583
0.158015
0.1996
0.233854
0.263451
0.288103
0.31087
0.329899
0.348325
0.363593
0.378896
0.391423
0.404305
0.41476
0.425732
0.43469
0.444231
0.452134
0.460533
0.467782
0.475481
0.482771
0.490716
0.499213
0.508122
0.514281
0.517371
0.521964
0.526652
0.532064
0.531309
0.529627
0.5218
0.523541
0.521192
0.52302
0.526568
0.523106
0.516351
0.510125
0.4961
0.48883
0.484721
0.482025
0.478114
0.47205
0.468634
0.463972
0.463435
0.451156
0.447262
0.442226
0.436661
0.434975
0.432511
0.422201
0.418099
0.415131
0.411311
0.40422
0.399799
0.395513
0.385789
0.382515
0.372446
0.368322
0.356187
0.349735
0.338443
0.335719
0.330126
0.329158
0.326096
0.327618
0.32225
0.316571
0.305172
0.293547
0.277816
0.264003
0.249361
0.236705
0.226093
0.216765
0.214151
0.208047
0.202529
0.197779
0.197753
0.194077
0.194395
0.195536
0.192471
0.193733
0.19687
0.193562
0.199728
0.19808
0.203322
0.200468
0.200654
0.200847
0.206178
0.203942
0.204725
0.205558
0.212203
0.218932
0.22793
0.224053
0.228893
0.224828
0.22758
0.232012
0.22816
0.232944
0.244992
0.241696
0.247795
0.243186
0.250126
0.246465
0.251373
0.247655
0.252145
0.248869
0.2493
0.249482
0.254279
0.259152
0.258072
0.265238
0.263057
0.262568
0.263031
0.263211
0.27113
0.269993
0.270078
0.270885
0.275207
0.280114
0.276119
0.275562
0.275995
0.276204
0.277066
0.277587
0.283824
0.289677
0.297013
0.293083
0.296965
0.292845
0.292666
0.29218
0.296651
0.294678
0.294025
0.297671
0.299957
0.302627
0.299723
0.300057
0.305556
0.303366
0.306746
0.302651
0.301499
0.301008
0.304594
0.298345
0.296883
0.293721
0.284932
0.0799126
0.141191
0.173507
0.206452
0.245342
0.287132
0.32106
0.353847
0.382699
0.410476
0.436907
0.463508
0.489369
0.515503
0.540648
0.565829
0.589856
0.613709
0.636389
0.658802
0.680141
0.701205
0.721338
0.741169
0.760163
0.778774
0.796607
0.813884
0.830299
0.845877
0.860581
0.874526
0.887935
0.900297
0.911853
0.921876
0.931191
0.939093
0.946771
0.952861
0.958476
0.962518
0.965458
0.967268
0.967073
0.965162
0.963038
0.959215
0.95492
0.949281
0.943454
0.936832
0.930288
0.922952
0.91525
0.907497
0.90017
0.892268
0.884891
0.876774
0.868484
0.860158
0.852553
0.844372
0.836124
0.827508
0.818295
0.80837
0.798757
0.788396
0.777003
0.76377
0.75056
0.736365
0.722575
0.708275
0.694632
0.681036
0.66825
0.654858
0.641699
0.625781
0.605187
0.579894
0.552013
0.521601
0.490198
0.459562
0.431185
0.405916
0.383687
0.364545
0.348735
0.335941
0.325513
0.31736
0.310833
0.305598
0.300825
0.297285
0.293537
0.2907
0.287242
0.284544
0.281744
0.278733
0.276673
0.274551
0.272285
0.270576
0.269399
0.268339
0.267486
0.266347
0.265324
0.264414
0.26258
0.260926
0.259879
0.257934
0.257025
0.25794
0.256505
0.256164
0.255638
0.255912
0.256441
0.255967
0.25515
0.25516
0.253678
0.253388
0.25219
0.25023
0.249117
0.247161
0.247115
0.248404
0.24961
0.249002
0.247028
0.245955
0.245078
0.247294
0.245903
0.246717
0.24725
0.247044
0.247093
0.245685
0.24466
0.244467
0.244391
0.244731
0.245101
0.245755
0.246154
0.246145
0.24838
0.251131
0.249118
0.250033
0.253337
0.254128
0.252951
0.255106
0.252964
0.252124
0.254839
0.254645
0.256034
0.259089
0.257743
0.256863
0.257992
0.26061
0.264925
0.270295
0.27562
0.285033
0.185134
0.29735
0.339598
0.363822
0.389635
0.419406
0.449713
0.481333
0.513439
0.54617
0.578861
0.611448
0.6427
0.672685
0.700577
0.726826
0.751069
0.774018
0.795549
0.816381
0.83644
0.856327
0.875936
0.895682
0.915405
0.935328
0.955248
0.9752
0.994963
1.01439
1.03331
1.0515
1.06886
1.08504
1.10004
1.1135
1.12556
1.13584
1.14465
1.15156
1.15696
1.1607
1.16327
1.16635
1.16574
1.16331
1.15974
1.15478
1.14892
1.14194
1.13429
1.12576
1.11679
1.10717
1.09724
1.08687
1.07635
1.06539
1.05431
1.04287
1.03127
1.01933
1.00713
0.994453
0.981235
0.967379
0.953127
0.938662
0.924276
0.909963
0.895866
0.881955
0.868292
0.854524
0.840639
0.826448
0.812041
0.797341
0.782407
0.767062
0.751413
0.735054
0.717212
0.697508
0.676176
0.649668
0.617819
0.583253
0.54714
0.511451
0.477607
0.446804
0.419877
0.397053
0.378185
0.362877
0.350565
0.340689
0.332667
0.32606
0.320495
0.31567
0.311268
0.307345
0.303617
0.300137
0.297118
0.294303
0.291699
0.28927
0.287096
0.285028
0.28325
0.281332
0.279442
0.277683
0.275981
0.274403
0.272941
0.27162
0.270327
0.269353
0.268259
0.267296
0.266325
0.265353
0.264454
0.263218
0.262194
0.260754
0.25948
0.257888
0.256079
0.254541
0.253258
0.251951
0.250858
0.250116
0.249565
0.249093
0.248079
0.247002
0.245745
0.244903
0.243668
0.242919
0.241834
0.241343
0.240259
0.239434
0.238209
0.237548
0.237018
0.236948
0.235616
0.236716
0.235393
0.234426
0.23412
0.233716
0.235612
0.234265
0.235077
0.235468
0.235101
0.235018
0.233104
0.232579
0.232178
0.234853
0.233997
0.236267
0.236105
0.236025
0.235087
0.234774
0.233527
0.233934
0.234965
0.239363
0.257857
0.396281
0.439362
0.45587
0.474973
0.502828
0.535911
0.571824
0.608801
0.645908
0.681683
0.715663
0.747027
0.775952
0.802176
0.826309
0.848432
0.869313
0.889136
0.908609
0.927861
0.94742
0.967302
0.987822
1.00886
1.03053
1.0526
1.07498
1.09741
1.11964
1.1414
1.16238
1.18234
1.20095
1.21808
1.23339
1.24689
1.25827
1.26767
1.27487
1.28008
1.28364
1.28841
1.28885
1.287
1.28325
1.2781
1.27149
1.2638
1.25494
1.24525
1.23463
1.22339
1.21146
1.1991
1.18621
1.17299
1.15937
1.14547
1.1311
1.11631
1.10114
1.08575
1.07018
1.05453
1.03881
1.02309
1.00743
0.991901
0.976503
0.961301
0.946338
0.931594
0.916944
0.902266
0.887449
0.872418
0.857123
0.841496
0.825436
0.80886
0.791651
0.773581
0.754478
0.734356
0.712088
0.687585
0.661355
0.62891
0.592994
0.55508
0.517374
0.481843
0.449902
0.422292
0.399164
0.380217
0.364927
0.352665
0.34279
0.334773
0.328125
0.322505
0.317619
0.31331
0.309407
0.305923
0.302779
0.299895
0.297205
0.294758
0.29239
0.290272
0.288256
0.286183
0.284195
0.282232
0.280452
0.278848
0.277374
0.276165
0.27502
0.273869
0.272772
0.271585
0.270403
0.269044
0.267717
0.266265
0.264817
0.263273
0.261825
0.260158
0.258715
0.257303
0.255829
0.254022
0.252889
0.252193
0.251503
0.25028
0.249097
0.2476
0.246457
0.244473
0.243305
0.241686
0.24123
0.240437
0.239839
0.23797
0.237149
0.236927
0.236875
0.236231
0.235238
0.234592
0.232485
0.233023
0.231236
0.231786
0.23018
0.229561
0.228875
0.228441
0.2292
0.227456
0.226641
0.226516
0.226644
0.229299
0.228437
0.229298
0.230006
0.229783
0.22916
0.227693
0.227111
0.227101
0.228096
0.28718
0.433281
0.485592
0.509454
0.535252
0.568906
0.607666
0.648581
0.689378
0.728733
0.765392
0.799123
0.829535
0.857049
0.881749
0.904382
0.925245
0.945159
0.964443
0.98381
1.00347
1.02392
1.04522
1.06761
1.09097
1.1153
1.14033
1.16586
1.19152
1.21697
1.24181
1.26566
1.2882
1.30902
1.32795
1.34464
1.35904
1.37085
1.38021
1.3868
1.39097
1.39523
1.39829
1.39674
1.39279
1.38679
1.37922
1.3701
1.3598
1.34827
1.33585
1.32249
1.30849
1.29379
1.27863
1.26298
1.24699
1.23054
1.21373
1.19658
1.17925
1.16179
1.14435
1.12697
1.10972
1.0926
1.07566
1.0589
1.04234
1.02595
1.00976
0.993767
0.977944
0.962229
0.946542
0.930795
0.914913
0.898837
0.88248
0.865774
0.848627
0.830918
0.812527
0.793323
0.773215
0.751994
0.729573
0.705615
0.679511
0.651695
0.617913
0.580601
0.541973
0.504375
0.469705
0.439161
0.413181
0.391663
0.374161
0.360046
0.348708
0.339523
0.332024
0.325759
0.320481
0.315899
0.311919
0.308391
0.305236
0.302349
0.299748
0.297251
0.294994
0.292846
0.290771
0.288839
0.286805
0.285009
0.283268
0.281633
0.28055
0.279495
0.27843
0.277284
0.276117
0.27484
0.27343
0.271993
0.270457
0.269037
0.267629
0.266355
0.264906
0.263549
0.262166
0.260811
0.259466
0.258064
0.256568
0.255505
0.253944
0.252863
0.251134
0.249644
0.248363
0.247053
0.24623
0.245318
0.244793
0.244147
0.243332
0.242252
0.241505
0.240205
0.239062
0.238208
0.236749
0.235853
0.23389
0.233189
0.232539
0.233413
0.231408
0.231386
0.230827
0.230402
0.230379
0.227995
0.227588
0.229221
0.227657
0.229969
0.228475
0.229434
0.23058
0.230586
0.229137
0.22812
0.227209
0.227272
0.293283
0.439728
0.505064
0.545725
0.585185
0.628652
0.674337
0.720033
0.763855
0.804783
0.842051
0.875745
0.905818
0.932878
0.957212
0.979656
1.00063
1.02101
1.04119
1.06193
1.08348
1.10635
1.1306
1.15642
1.18363
1.21215
1.24158
1.2716
1.30169
1.33138
1.36017
1.38754
1.41309
1.43635
1.4571
1.47499
1.49005
1.50204
1.51102
1.51701
1.52319
1.52437
1.52246
1.5176
1.51043
1.5011
1.49008
1.47743
1.46355
1.44846
1.43249
1.41564
1.39819
1.38013
1.36169
1.34279
1.32358
1.30406
1.28442
1.26471
1.24507
1.22551
1.20615
1.18698
1.16807
1.14939
1.13097
1.11279
1.09485
1.07712
1.05961
1.04228
1.0251
1.00804
0.99104
0.974032
0.956958
0.939761
0.922365
0.904703
0.886692
0.868234
0.849241
0.829614
0.809258
0.788086
0.76602
0.743057
0.71884
0.693243
0.665685
0.634956
0.599264
0.560983
0.522797
0.486872
0.45463
0.426757
0.403341
0.384059
0.368377
0.355692
0.345416
0.337037
0.330152
0.3244
0.319542
0.315381
0.311764
0.308589
0.305765
0.303181
0.300831
0.298614
0.296542
0.294591
0.292674
0.29092
0.28926
0.287743
0.28642
0.285225
0.28408
0.282839
0.281646
0.280262
0.278844
0.277367
0.275738
0.274387
0.273151
0.271991
0.270788
0.269604
0.2682
0.266825
0.265395
0.263892
0.262389
0.261256
0.259947
0.258847
0.25736
0.255891
0.254759
0.253022
0.251824
0.250516
0.250301
0.249775
0.24906
0.24773
0.246598
0.245312
0.244129
0.242958
0.241848
0.24081
0.239874
0.238843
0.238676
0.236872
0.236221
0.235495
0.23486
0.235286
0.235622
0.233039
0.232458
0.233869
0.231687
0.233788
0.23201
0.232772
0.234202
0.234229
0.233605
0.232049
0.23123
0.229651
0.301034
0.443052
0.518727
0.577371
0.631886
0.685803
0.738316
0.78849
0.835267
0.878144
0.916753
0.951454
0.982411
1.01036
1.0357
1.05937
1.08189
1.10423
1.12687
1.15066
1.17589
1.2031
1.23229
1.26362
1.29678
1.33157
1.3674
1.40379
1.44005
1.47553
1.50957
1.54151
1.57084
1.59701
1.61978
1.63889
1.65434
1.66591
1.67382
1.6813
1.68287
1.68023
1.67426
1.66524
1.65376
1.63998
1.62441
1.60718
1.58871
1.56908
1.54866
1.52748
1.50584
1.48371
1.46129
1.43859
1.41585
1.39309
1.37049
1.34804
1.32586
1.30393
1.28233
1.26104
1.24008
1.21943
1.19909
1.17903
1.15925
1.13972
1.12042
1.10131
1.08237
1.06355
1.04481
1.02612
1.00741
0.98864
0.969756
0.950688
0.931369
0.911713
0.891652
0.871114
0.850024
0.828359
0.806035
0.783014
0.759284
0.734656
0.708815
0.681612
0.652679
0.61826
0.580894
0.542925
0.506501
0.473195
0.443875
0.418833
0.397893
0.380657
0.366574
0.355131
0.34582
0.338201
0.331921
0.326701
0.322354
0.318679
0.315531
0.312807
0.310356
0.308075
0.305922
0.303889
0.30193
0.300085
0.298348
0.296779
0.295343
0.294003
0.292715
0.291356
0.290014
0.288567
0.287129
0.285636
0.284142
0.282711
0.281336
0.280082
0.278819
0.277651
0.276303
0.274888
0.273475
0.272009
0.27062
0.269337
0.268144
0.266894
0.265567
0.26426
0.263124
0.26134
0.260042
0.259178
0.258569
0.257753
0.256866
0.255809
0.254475
0.252945
0.251733
0.250625
0.248718
0.247832
0.247479
0.245557
0.246243
0.244416
0.244718
0.244257
0.242053
0.242931
0.241513
0.240243
0.239581
0.240746
0.23833
0.240066
0.238186
0.239305
0.239527
0.238849
0.238087
0.236682
0.23606
0.233491
0.316819
0.446357
0.534915
0.609116
0.676429
0.739308
0.798009
0.852792
0.903177
0.949029
0.990261
1.02738
1.06066
1.09094
1.11873
1.14508
1.17063
1.19652
1.22333
1.25204
1.28297
1.31669
1.35312
1.39236
1.43389
1.47734
1.52192
1.5669
1.61135
1.65441
1.69521
1.73293
1.76687
1.79646
1.82151
1.84159
1.85673
1.86689
1.87666
1.87905
1.87626
1.86897
1.85802
1.84374
1.82681
1.80746
1.78627
1.76343
1.73943
1.71439
1.68871
1.66245
1.63588
1.60904
1.58222
1.55546
1.52895
1.5027
1.47684
1.45134
1.42628
1.40162
1.3774
1.35358
1.33017
1.30713
1.28445
1.2621
1.24005
1.21827
1.19673
1.1754
1.15424
1.13322
1.1123
1.09146
1.07065
1.04982
1.02895
1.00796
0.986816
0.965433
0.943752
0.921727
0.899315
0.876529
0.85333
0.829668
0.805521
0.780836
0.755522
0.729343
0.702246
0.673743
0.64077
0.604535
0.567137
0.530607
0.496547
0.465988
0.439406
0.416825
0.397999
0.382509
0.369889
0.359592
0.351267
0.344498
0.339167
0.33477
0.331211
0.328265
0.325629
0.323151
0.320792
0.318541
0.316384
0.314309
0.312455
0.310802
0.309247
0.307694
0.30617
0.304556
0.302963
0.301361
0.299803
0.298249
0.296729
0.295229
0.293728
0.292277
0.290809
0.289417
0.287953
0.286444
0.284956
0.283436
0.281946
0.280522
0.279209
0.277739
0.276438
0.275055
0.273856
0.27249
0.27116
0.270143
0.269166
0.268052
0.266864
0.265718
0.264521
0.263146
0.26208
0.260504
0.259501
0.258218
0.257474
0.255603
0.255901
0.254237
0.25424
0.253459
0.251727
0.251042
0.251161
0.249037
0.248305
0.248828
0.24638
0.246049
0.246536
0.246894
0.246305
0.245269
0.244139
0.242944
0.241569
0.238675
0.32275
0.457876
0.555255
0.640778
0.717675
0.787964
0.852543
0.912258
0.96707
1.017
1.06205
1.10281
1.13962
1.17343
1.20485
1.23515
1.26509
1.29606
1.32875
1.36432
1.40307
1.44562
1.49173
1.54139
1.59383
1.64849
1.70423
1.76009
1.81481
1.86729
1.91638
1.96101
2.00038
2.0339
2.06109
2.08145
2.09464
2.1054
2.11177
2.10956
2.1015
2.08841
2.07127
2.05053
2.02699
2.00097
1.97316
1.94379
1.91343
1.88222
1.85059
1.81864
1.78675
1.75498
1.7236
1.6926
1.66215
1.63222
1.60289
1.57411
1.54593
1.51827
1.49117
1.46455
1.43841
1.41269
1.38738
1.36242
1.33779
1.31343
1.28933
1.26543
1.24171
1.21813
1.19467
1.1713
1.14798
1.1247
1.1014
1.07804
1.05459
1.03098
1.00715
0.983081
0.958759
0.934235
0.909502
0.884557
0.859376
0.83387
0.80798
0.781795
0.755063
0.727677
0.699125
0.667519
0.632388
0.595562
0.558946
0.524169
0.492424
0.464363
0.440272
0.420025
0.403327
0.389609
0.378654
0.369916
0.363435
0.358051
0.354026
0.350691
0.347574
0.344612
0.341832
0.339222
0.33675
0.334397
0.332539
0.330858
0.329111
0.327226
0.32539
0.323424
0.321578
0.319842
0.318151
0.31647
0.314804
0.313122
0.311406
0.309653
0.307849
0.306032
0.304182
0.302334
0.300517
0.298747
0.297021
0.295342
0.293763
0.292154
0.290627
0.289032
0.287538
0.286054
0.284602
0.28329
0.282053
0.280744
0.279318
0.278085
0.276817
0.275614
0.274304
0.273004
0.271798
0.270661
0.269631
0.26848
0.26768
0.266725
0.265932
0.26497
0.26381
0.262537
0.260958
0.260198
0.259232
0.258689
0.256574
0.255843
0.256253
0.25585
0.254809
0.253566
0.252078
0.250516
0.248729
0.245984
0.321211
0.466019
0.576574
0.670917
0.754989
0.83132
0.901137
0.965715
1.02532
1.07991
1.1295
1.17471
1.21589
1.25414
1.29019
1.32555
1.36118
1.39872
1.439
1.48331
1.53194
1.58549
1.64351
1.70587
1.77149
1.83959
1.90871
1.97759
2.04461
2.10837
2.16737
2.2202
2.2661
2.30401
2.33349
2.35331
2.36778
2.37678
2.37611
2.36769
2.35297
2.33274
2.30812
2.2797
2.24842
2.21472
2.17938
2.14268
2.10527
2.06737
2.02948
1.99173
1.95446
1.91773
1.88174
1.84645
1.81201
1.77832
1.74545
1.71331
1.68192
1.65118
1.62109
1.59156
1.56257
1.53405
1.50597
1.47826
1.45088
1.42379
1.39694
1.37029
1.3438
1.31745
1.29121
1.26505
1.23895
1.2129
1.18686
1.1608
1.13467
1.10845
1.08205
1.05548
1.02875
1.00194
0.975079
0.948218
0.921357
0.894416
0.867281
0.840002
0.812655
0.785109
0.757142
0.728385
0.697706
0.663338
0.626831
0.590017
0.554547
0.521753
0.492529
0.467258
0.445927
0.428177
0.413965
0.402723
0.394629
0.387678
0.382987
0.378706
0.374612
0.370913
0.367573
0.364539
0.361776
0.359259
0.357659
0.355916
0.353863
0.351693
0.349699
0.347488
0.345647
0.343953
0.342185
0.340383
0.338545
0.336641
0.334644
0.332508
0.33024
0.32788
0.325477
0.323101
0.320799
0.318587
0.316454
0.314379
0.312373
0.310402
0.308484
0.306554
0.304668
0.302831
0.301057
0.299377
0.297792
0.296248
0.29469
0.293201
0.291788
0.290383
0.288974
0.28756
0.286147
0.284797
0.283494
0.282206
0.281005
0.279857
0.278791
0.277627
0.276435
0.275141
0.273956
0.272401
0.271294
0.269749
0.269373
0.268364
0.267401
0.26637
0.265038
0.263442
0.261105
0.259425
0.256805
0.254653
0.329965
0.483592
0.59932
0.698828
0.787753
0.868563
0.942613
1.01131
1.07546
1.13479
1.18917
1.23922
1.28529
1.32863
1.37008
1.41144
1.45382
1.49916
1.54834
1.60282
1.66274
1.72872
1.80006
1.87654
1.95684
2.04003
2.12433
2.20821
2.28967
2.36689
2.43785
2.5009
2.55484
2.59819
2.62975
2.65112
2.66601
2.66887
2.66195
2.64643
2.62388
2.59526
2.56195
2.52472
2.48467
2.44241
2.39883
2.35436
2.30967
2.26502
2.22089
2.17739
2.13481
2.09316
2.05261
2.0131
1.97471
1.93731
1.90095
1.86549
1.83092
1.79712
1.76407
1.73165
1.69982
1.66849
1.63763
1.60714
1.57699
1.5471
1.51745
1.48797
1.45863
1.42939
1.40025
1.37117
1.34214
1.31315
1.28418
1.2552
1.22618
1.19709
1.16785
1.13846
1.10897
1.07946
1.05002
1.02072
0.99163
0.962653
0.933694
0.904763
0.875916
0.847207
0.818607
0.789882
0.760711
0.730488
0.696377
0.659956
0.622872
0.586846
0.553269
0.523082
0.496739
0.474372
0.455779
0.440884
0.429364
0.420254
0.413272
0.407708
0.402914
0.398673
0.394837
0.391434
0.388653
0.385974
0.384046
0.382206
0.380269
0.378306
0.376549
0.374421
0.37298
0.371468
0.369667
0.367876
0.366018
0.364041
0.361889
0.359475
0.356831
0.354021
0.351144
0.348313
0.345583
0.342943
0.340372
0.33784
0.335342
0.33288
0.330464
0.328063
0.325697
0.323384
0.321153
0.319027
0.317014
0.315098
0.313245
0.311426
0.309676
0.307925
0.30621
0.304491
0.302781
0.301088
0.299444
0.297804
0.296258
0.294778
0.293388
0.292012
0.290612
0.289204
0.28787
0.286339
0.284944
0.283521
0.282269
0.280876
0.279386
0.277889
0.276245
0.274387
0.272251
0.269982
0.268046
0.265069
0.350841
0.506648
0.623561
0.724749
0.815859
0.89917
0.975966
1.0477
1.11534
1.17885
1.23779
1.29266
1.34379
1.39252
1.43978
1.48761
1.53725
1.59087
1.64931
1.71417
1.78544
1.86376
1.94831
2.03892
2.13415
2.23312
2.33384
2.43457
2.5329
2.62644
2.71252
2.78891
2.85348
2.90482
2.94011
2.9641
2.97673
2.97511
2.96188
2.93861
2.90729
2.86927
2.82627
2.77939
2.72999
2.67882
2.62687
2.57462
2.52274
2.47146
2.42122
2.37209
2.32435
2.27793
2.23298
2.18938
2.14718
2.10622
2.06649
2.02782
1.9902
1.95344
1.91752
1.88228
1.84768
1.8136
1.77999
1.74676
1.71386
1.68119
1.64873
1.6164
1.58418
1.55204
1.51994
1.48789
1.45586
1.42385
1.39186
1.35986
1.32783
1.29573
1.26351
1.23116
1.1987
1.16626
1.13394
1.10187
1.07014
1.03869
1.00742
0.976346
0.945518
0.914984
0.884787
0.855001
0.825308
0.795487
0.764992
0.731091
0.694736
0.65746
0.620847
0.586277
0.554819
0.527161
0.503545
0.483911
0.468058
0.455441
0.445518
0.43768
0.431446
0.426307
0.421971
0.418232
0.4152
0.412454
0.410134
0.408171
0.406376
0.404599
0.403004
0.401261
0.399638
0.398129
0.396685
0.395284
0.393718
0.391985
0.39003
0.387684
0.385046
0.382169
0.379195
0.376244
0.373354
0.370493
0.367635
0.364755
0.361862
0.358971
0.356093
0.353216
0.350355
0.34754
0.344809
0.342192
0.339697
0.337314
0.335023
0.332773
0.330565
0.328354
0.326165
0.323982
0.321813
0.319659
0.317555
0.315478
0.313496
0.311581
0.30976
0.308001
0.306266
0.304553
0.302889
0.301135
0.299412
0.297669
0.295934
0.29415
0.292262
0.290351
0.288349
0.286123
0.283938
0.281098
0.279209
0.275556
0.37466
0.530561
0.646963
0.747705
0.838795
0.922663
1.00056
1.07384
1.14341
1.2101
1.27297
1.3323
1.38825
1.44219
1.49506
1.54905
1.60539
1.66642
1.73289
1.80651
1.88713
1.97561
2.07112
2.17385
2.28251
2.39656
2.51402
2.63312
2.75097
2.86456
2.97027
3.06479
3.14494
3.20841
3.25227
3.28096
3.29176
3.28643
3.26723
3.23616
3.19579
3.14808
3.09521
3.03863
2.97991
2.91996
2.85983
2.80002
2.74117
2.68351
2.62744
2.57298
2.52034
2.46943
2.42035
2.37292
2.32714
2.28283
2.23993
2.19825
2.15772
2.11816
2.07948
2.04154
2.00425
1.9675
1.93121
1.89529
1.85966
1.82424
1.78898
1.75382
1.71872
1.68364
1.64858
1.61353
1.57847
1.54341
1.50836
1.4733
1.43821
1.40308
1.36783
1.33245
1.29698
1.2615
1.22618
1.19116
1.15659
1.12239
1.0885
1.05493
1.02174
0.988994
0.956717
0.924958
0.893783
0.862943
0.832219
0.800964
0.767376
0.731063
0.693312
0.655641
0.619602
0.586512
0.557167
0.531882
0.510782
0.493533
0.47968
0.468635
0.459977
0.453191
0.447865
0.443483
0.440019
0.436958
0.434438
0.432263
0.43046
0.428803
0.427238
0.425747
0.423651
0.422002
0.420854
0.419768
0.41837
0.417094
0.415773
0.413903
0.411793
0.409348
0.406764
0.404104
0.401408
0.398648
0.395803
0.392866
0.389853
0.386787
0.383665
0.380488
0.377275
0.374071
0.370922
0.367868
0.364919
0.362066
0.359292
0.356559
0.353843
0.351114
0.348375
0.345633
0.342896
0.34018
0.337517
0.334909
0.332402
0.329981
0.327663
0.325428
0.323258
0.321128
0.319052
0.31693
0.314815
0.312667
0.310494
0.308292
0.306008
0.30366
0.301275
0.298596
0.296161
0.292816
0.290653
0.286494
0.402716
0.555087
0.669248
0.767627
0.856863
0.939534
1.01693
1.09038
1.16066
1.22882
1.29444
1.35738
1.41743
1.47581
1.53325
1.592
1.65316
1.71915
1.79056
1.8692
1.95489
2.04889
2.15064
2.26101
2.37928
2.50567
2.63872
2.77688
2.91655
3.05427
3.18542
3.30481
3.40751
3.48925
3.548
3.58366
3.59711
3.59125
3.56816
3.53072
3.48231
3.42563
3.36345
3.29762
3.23001
3.1617
3.09383
3.02692
2.96162
2.89809
2.83669
2.77739
2.72034
2.6654
2.61259
2.56172
2.51272
2.46537
2.41959
2.37513
2.33191
2.28971
2.24844
2.20791
2.16805
2.1287
2.0898
2.05123
2.01292
1.97476
1.93672
1.89872
1.86074
1.82273
1.7847
1.74662
1.70852
1.67039
1.63227
1.59414
1.55599
1.5178
1.47954
1.44115
1.40267
1.36418
1.32587
1.28785
1.25035
1.21328
1.1766
1.14034
1.10457
1.06934
1.0347
1.00068
0.967308
0.934624
0.902513
0.870651
0.838467
0.805075
0.768303
0.729459
0.690241
0.652327
0.617041
0.585448
0.558158
0.535189
0.516384
0.50119
0.489146
0.479794
0.472667
0.466969
0.462591
0.458704
0.455824
0.45317
0.451112
0.449297
0.447567
0.446029
0.442166
0.440513
0.440337
0.439322
0.437104
0.436833
0.436686
0.435298
0.43425
0.4326
0.430862
0.428817
0.426679
0.424398
0.421949
0.419327
0.416566
0.413679
0.410644
0.40746
0.404156
0.400788
0.397412
0.394077
0.390798
0.387575
0.384393
0.38123
0.378055
0.374845
0.37159
0.368303
0.365
0.36171
0.358468
0.355299
0.352237
0.349284
0.346444
0.343705
0.341053
0.338458
0.335924
0.333375
0.330829
0.328247
0.325631
0.32298
0.320275
0.317464
0.314675
0.311525
0.30873
0.30496
0.302416
0.297885
0.431614
0.577699
0.689317
0.784651
0.870971
0.951311
1.02713
1.09964
1.16957
1.23788
1.30475
1.36996
1.4328
1.49419
1.55447
1.61576
1.67893
1.74645
1.8188
1.89691
1.98123
2.07382
2.17472
2.28577
2.40729
2.54065
2.68537
2.84082
3.0043
3.17031
3.33274
3.48483
3.61891
3.72833
3.80904
3.85986
3.88058
3.87929
3.85588
3.81454
3.75981
3.69539
3.62484
3.55063
3.47495
3.39915
3.32439
3.25128
3.18037
3.11184
3.04593
2.98257
2.92182
2.86351
2.80758
2.75382
2.70207
2.65213
2.6038
2.55691
2.51125
2.46667
2.42297
2.38003
2.33769
2.29585
2.2544
2.21325
2.17228
2.13143
2.09061
2.04979
2.0089
1.96797
1.92694
1.88585
1.84469
1.80349
1.76228
1.72107
1.67986
1.63863
1.59738
1.55603
1.5146
1.47323
1.43187
1.39099
1.35049
1.31055
1.27104
1.23203
1.19358
1.15577
1.1186
1.08214
1.04639
1.0114
0.977136
0.943626
0.910395
0.877079
0.843071
0.805388
0.76512
0.723824
0.683344
0.645479
0.611531
0.582171
0.557571
0.537377
0.521122
0.508223
0.498267
0.490334
0.484233
0.478783
0.474939
0.471544
0.468671
0.466302
0.463543
0.461412
0.458724
0.456633
0.455316
0.452353
0.451071
0.450095
0.451626
0.448816
0.450092
0.449369
0.449112
0.447699
0.446525
0.445128
0.443394
0.441402
0.439255
0.436909
0.434306
0.431434
0.428333
0.425062
0.421696
0.418287
0.414869
0.411448
0.408027
0.404587
0.401104
0.39755
0.393915
0.390207
0.38645
0.382678
0.378938
0.375266
0.3717
0.368252
0.364924
0.361707
0.358589
0.355537
0.352549
0.349569
0.346594
0.343587
0.340546
0.337458
0.33434
0.331088
0.327902
0.324335
0.321162
0.317056
0.314138
0.309361
0.460086
0.601483
0.710372
0.802874
0.886134
0.963379
1.03656
1.10774
1.17705
1.24489
1.31115
1.37631
1.43999
1.50265
1.56381
1.62532
1.68796
1.75222
1.81948
1.89213
1.96988
2.05535
2.14825
2.25205
2.36804
2.50034
2.65069
2.82011
3.00479
3.20175
3.40242
3.59688
3.7735
3.92191
4.03476
4.1098
4.1429
4.15012
4.12981
4.0867
4.02714
3.95609
3.87826
3.79667
3.71408
3.6319
3.55151
3.47338
3.39812
3.32572
3.25643
3.18999
3.1265
3.06563
3.00736
2.95131
2.89743
2.84532
2.79492
2.74587
2.69811
2.65132
2.60541
2.56013
2.51545
2.47112
2.42718
2.38341
2.33981
2.29619
2.25258
2.20884
2.16504
2.12107
2.07701
2.03286
1.9885
1.94422
1.89975
1.85547
1.81104
1.7668
1.72242
1.67814
1.63377
1.58939
1.54522
1.50126
1.45788
1.415
1.37264
1.33085
1.2897
1.24921
1.20945
1.17044
1.13219
1.09472
1.05803
1.02212
0.986929
0.952127
0.917284
0.881636
0.842822
0.800411
0.756449
0.713288
0.673016
0.637071
0.606201
0.580358
0.559106
0.541875
0.528228
0.517246
0.508418
0.501017
0.495199
0.490066
0.486015
0.482572
0.479481
0.476248
0.473102
0.470741
0.467693
0.466495
0.464864
0.463607
0.463216
0.460372
0.461014
0.458761
0.460417
0.457807
0.45865
0.458919
0.458109
0.456942
0.455883
0.454505
0.452664
0.450378
0.447726
0.444771
0.441625
0.43834
0.434968
0.431533