/*--------------------------------*- C++ -*----------------------------------*\
| =========                 |                                                 |
| \\      /  F ield         | OpenFOAM: The Open Source CFD Toolbox           |
|  \\    /   O peration     | Version:  dev                                   |
|   \\  /    A nd           | Web:      www.OpenFOAM.org                      |
|    \\/     M anipulation  |                                                 |
\*---------------------------------------------------------------------------*/
FoamFile
{
    version     2.0;
    format      ascii;
    class       volScalarField;
    location    "20";
    object      nut;
}
// * * * * * * * * * * * * * * * * * * * * * * * * * * * * * * * * * * * * * //

dimensions      [0 2 -1 0 0 0 0];

internalField   nonuniform List<scalar> 
12225
(
4.14933e-05
3.93433e-05
3.74926e-05
3.54853e-05
3.3819e-05
3.24815e-05
3.16531e-05
3.10605e-05
3.10787e-05
3.13147e-05
3.13565e-05
3.24464e-05
3.58839e-05
3.90218e-05
4.43013e-05
4.78145e-05
5.24871e-05
5.94372e-05
0.000332188
0.000215437
0.000179384
0.000157638
0.000146426
0.000137821
0.000132915
0.000130833
0.0001303
0.000130125
0.000131704
0.000133865
0.000139177
0.000143563
0.000151254
0.000154676
0.000162622
0.000166124
0.000668625
0.000450398
0.000356417
0.00030906
0.00027512
0.000250018
0.000230538
0.000215246
0.000202181
0.00019113
0.000183811
0.000183793
0.000189013
0.000194235
0.000203396
0.00020603
0.000214471
0.000212332
0.000801519
0.000691122
0.000573451
0.000499248
0.000448913
0.000410418
0.000379176
0.000352404
0.000331172
0.000311996
0.00029635
0.000290872
0.000291588
0.000293209
0.000298055
0.000299188
0.000303773
0.000303578
0.000839571
0.000809852
0.000741202
0.000676039
0.000623365
0.000580051
0.000544147
0.000511336
0.000483045
0.000459238
0.000443312
0.000431806
0.000427086
0.00042115
0.000419492
0.000417125
0.000417378
0.000418203
0.000850324
0.00084319
0.000819589
0.000786498
0.000750247
0.000715214
0.000684201
0.000653756
0.000624789
0.000600263
0.000588602
0.000576948
0.000566852
0.0005534
0.000547324
0.000541777
0.000541015
0.000541598
0.00085153
0.000851071
0.000843229
0.000833408
0.000816732
0.000796802
0.000777025
0.000754651
0.000731114
0.000711388
0.000707317
0.000701561
0.000689818
0.000674152
0.000668227
0.000662521
0.000663232
0.000664304
0.000851482
0.000851971
0.000849889
0.000847489
0.000841183
0.000833775
0.000824528
0.000811439
0.000795765
0.000783868
0.000787536
0.000790711
0.000783271
0.000771486
0.000770511
0.000768513
0.000773134
0.000777636
0.000851527
0.000851765
0.00085078
0.000850497
0.000848588
0.000846466
0.000842779
0.00083729
0.000827554
0.000823125
0.000831295
0.000842653
0.000843667
0.000840135
0.000846766
0.000851974
0.000862857
0.000874432
0.000851579
0.000851663
0.000850748
0.000850903
0.000849888
0.000849795
0.000848101
0.000846157
0.000841544
0.000840248
0.000849651
0.000865538
0.000875095
0.000881334
0.000896299
0.000909789
0.000927687
0.000948773
0.000851602
0.000851643
0.000850696
0.00085095
0.00084993
0.000850445
0.000849099
0.000848655
0.000845309
0.000848756
0.000856138
0.000871507
0.00088645
0.000900649
0.000922556
0.000944101
0.000967879
0.000998386
0.000851621
0.000851618
0.000850698
0.000850954
0.000849899
0.000850506
0.000849184
0.000849124
0.000846317
0.000851115
0.000856611
0.000870144
0.000886081
0.000904818
0.000929539
0.000957244
0.000984378
0.00102205
0.000851652
0.000851559
0.000850749
0.000850894
0.000849953
0.000850427
0.000849246
0.000849239
0.000846765
0.000851744
0.000854903
0.000865901
0.000879712
0.000900394
0.000924586
0.000956522
0.000985574
0.00102802
0.000851697
0.000851475
0.000850838
0.000850751
0.000850139
0.000850132
0.000849507
0.000849104
0.000848505
0.000849631
0.000851611
0.000860038
0.000869536
0.000889381
0.000910866
0.000944784
0.000974069
0.00102198
0.000851726
0.00085143
0.000850884
0.000850683
0.00085019
0.000850046
0.0008495
0.000849162
0.000848903
0.000849172
0.000848949
0.000854692
0.000858608
0.000878397
0.000894771
0.000932151
0.000959941
0.00100635
0.000851717
0.000851451
0.000850837
0.000850749
0.000850015
0.000850342
0.000848966
0.000849639
0.000849425
0.000848939
0.000845638
0.000850919
0.000851963
0.000879188
0.000887669
0.000938864
0.000952213
0.00101013
0.000851609
0.000851629
0.000850652
0.000850898
0.000849953
0.000850279
0.000848888
0.000850003
0.00084976
0.000848851
0.000843645
0.000846952
0.000853068
0.000876409
0.000901649
0.000939465
0.000972118
0.00102355
0.000851691
0.000851514
0.000850831
0.00085065
0.000850291
0.000850019
0.000848614
0.000851783
0.000847822
0.000847786
0.000846751
0.000846434
0.000857917
0.000882835
0.000918659
0.000963741
0.0010061
0.00106159
0.000852183
0.000850767
0.000851412
0.00085035
0.000850268
0.000850037
0.000850004
0.00084987
0.000849277
0.000849105
0.000849139
0.00084654
0.000869283
0.000884645
0.000902984
0.000947878
0.000995521
0.00105854
0.00085185
0.000851279
0.000850955
0.000850557
0.000850231
0.000849956
0.00084967
0.000849258
0.0008489
0.000848565
0.000848749
0.000848694
0.000852615
0.000860706
0.00087191
0.000889831
0.000907544
0.000936923
0.000851768
0.000851372
0.000850952
0.000850599
0.000850257
0.000849951
0.000849656
0.000849284
0.000848915
0.000848551
0.000848751
0.000848822
0.000851509
0.000858213
0.000867642
0.0008831
0.000897565
0.00092225
0.000851736
0.000851405
0.000850963
0.000850604
0.000850303
0.000849949
0.000849678
0.000849238
0.000848788
0.000848284
0.000848832
0.000849961
0.000854958
0.000863283
0.000874296
0.000891195
0.000905214
0.000930701
0.000851681
0.000851502
0.00085097
0.000850586
0.00085044
0.000849749
0.000849801
0.00084878
0.000848239
0.000845267
0.000849304
0.000852055
0.000860444
0.000868894
0.000879051
0.000892888
0.000902266
0.000924547
0.000851667
0.000851569
0.000850878
0.000850679
0.00084974
0.000849189
0.000847614
0.000846326
0.00084253
0.00083726
0.000837665
0.000841805
0.000849347
0.00085113
0.000854524
0.000860227
0.000862266
0.000880078
0.000851817
0.000851426
0.000850184
0.000848271
0.000844404
0.000839616
0.000833014
0.000826043
0.000815789
0.000802799
0.00079633
0.000796428
0.000795207
0.000787059
0.000780765
0.000779896
0.000777584
0.000793567
0.000852087
0.000847666
0.000839943
0.000827002
0.000809227
0.000789552
0.000770495
0.000751759
0.000731991
0.000708898
0.000693928
0.000685334
0.00067492
0.00066182
0.000652087
0.000652193
0.000651764
0.000668744
0.000843166
0.000822311
0.00077579
0.000726277
0.000685723
0.000649522
0.000618914
0.000591921
0.000567035
0.00054153
0.000524011
0.000510724
0.000500374
0.000493068
0.000489171
0.00049573
0.000501339
0.000519764
0.000795101
0.000668043
0.000571694
0.000509784
0.000466498
0.000431292
0.000404703
0.000382218
0.000363213
0.000346896
0.000334181
0.000324465
0.000321756
0.000323995
0.000328809
0.000340846
0.000352017
0.000369854
0.000501601
0.000348392
0.000293048
0.000259396
0.00023749
0.000221331
0.000211979
0.000203865
0.000199131
0.000196188
0.000193319
0.000191104
0.000193743
0.000199853
0.000207686
0.000219102
0.000230252
0.000243585
7.27302e-05
7.0255e-05
6.79278e-05
6.56664e-05
6.34189e-05
6.13514e-05
5.9551e-05
5.82307e-05
5.70304e-05
5.57027e-05
5.38335e-05
5.28544e-05
5.36312e-05
5.80068e-05
6.34054e-05
7.13395e-05
7.96472e-05
8.87562e-05
9.80036e-06
8.25959e-05
0.000117483
0.000157559
0.000194332
0.000219151
4.25335e-05
5.09711e-05
5.72177e-05
6.20479e-05
6.5796e-05
6.89625e-05
7.15191e-05
7.38231e-05
7.5694e-05
7.74689e-05
7.89023e-05
8.03324e-05
8.14826e-05
8.2688e-05
8.36547e-05
8.47007e-05
8.55228e-05
8.64508e-05
8.72002e-05
8.80855e-05
8.88767e-05
8.9838e-05
9.06822e-05
9.12293e-05
9.10669e-05
9.12262e-05
9.20015e-05
9.31484e-05
9.45732e-05
9.42539e-05
9.35729e-05
9.12598e-05
9.22379e-05
9.23503e-05
9.38322e-05
9.86633e-05
9.64998e-05
9.88337e-05
9.62909e-05
9.27972e-05
9.06009e-05
9.07121e-05
9.05938e-05
9.10525e-05
8.95387e-05
9.02807e-05
8.93646e-05
9.11987e-05
8.69819e-05
8.6821e-05
8.67547e-05
8.62152e-05
8.65286e-05
8.77229e-05
8.42122e-05
8.37891e-05
8.38914e-05
8.45953e-05
8.2252e-05
8.38284e-05
8.28482e-05
8.21954e-05
8.2952e-05
8.27578e-05
8.23082e-05
7.92636e-05
7.69049e-05
7.32408e-05
7.16108e-05
7.02032e-05
7.07836e-05
7.25911e-05
7.66227e-05
7.96488e-05
8.25397e-05
8.34973e-05
8.34079e-05
8.04448e-05
7.70059e-05
7.28824e-05
6.86505e-05
6.44106e-05
6.02645e-05
5.90427e-05
5.72311e-05
5.4997e-05
5.2829e-05
5.21929e-05
4.93949e-05
5.07969e-05
5.14104e-05
4.97982e-05
4.99872e-05
5.11589e-05
4.90771e-05
4.96694e-05
4.71541e-05
5.02241e-05
4.89623e-05
4.73486e-05
4.82774e-05
5.06314e-05
4.93274e-05
4.75643e-05
4.83735e-05
4.94212e-05
5.04115e-05
5.27408e-05
5.02246e-05
5.31046e-05
5.1508e-05
5.24423e-05
5.42149e-05
5.23452e-05
5.11442e-05
5.3674e-05
5.04995e-05
5.4373e-05
5.2826e-05
5.42449e-05
5.25748e-05
5.50927e-05
5.35595e-05
5.52904e-05
5.37181e-05
5.17719e-05
5.25908e-05
5.41597e-05
5.58832e-05
5.47462e-05
5.56895e-05
5.28646e-05
5.37955e-05
5.27681e-05
5.3473e-05
5.51882e-05
5.25741e-05
5.35386e-05
5.27672e-05
5.56335e-05
5.76434e-05
5.61147e-05
5.55256e-05
5.37484e-05
5.44574e-05
5.37694e-05
5.44402e-05
5.5335e-05
5.61809e-05
5.78975e-05
5.56952e-05
5.79704e-05
5.6638e-05
5.53448e-05
5.59188e-05
5.74112e-05
5.65368e-05
5.61608e-05
5.70829e-05
5.76903e-05
5.84555e-05
5.71518e-05
5.67635e-05
5.75058e-05
5.54048e-05
5.77794e-05
5.63789e-05
5.54902e-05
5.53091e-05
5.70715e-05
5.48011e-05
5.66305e-05
5.65408e-05
5.42107e-05
2.56506e-05
8.62922e-05
9.83181e-05
9.93074e-05
0.00010503
0.000115749
0.000123563
0.000141462
0.000156867
0.000174971
0.000194089
0.000214253
0.000235469
0.000257329
0.000279744
0.000302244
0.000324913
0.000347398
0.000369817
0.000391888
0.000413715
0.000435098
0.000456078
0.000476504
0.000496247
0.000515167
0.000532982
0.000549503
0.000564274
0.00057745
0.000589747
0.000602157
0.00061376
0.000624633
0.000634091
0.000641968
0.000649672
0.000658706
0.00066864
0.000679889
0.000685593
0.000695911
0.000698347
0.000709708
0.000709534
0.00071024
0.000709627
0.000708646
0.000706199
0.00070357
0.000699727
0.000696931
0.000693565
0.000690567
0.0006854
0.00068198
0.000679287
0.000675664
0.000671644
0.000667829
0.000661557
0.000656304
0.000652178
0.000647945
0.00064207
0.000639324
0.000634593
0.000631995
0.000630054
0.000629572
0.000626868
0.000622382
0.000614921
0.000605176
0.000592842
0.000580121
0.0005677
0.00055769
0.000549993
0.00054767
0.000553102
0.000561088
0.000564364
0.000560634
0.000549502
0.000530485
0.000503885
0.000472062
0.000438948
0.000405493
0.000374918
0.000347235
0.00032565
0.000306845
0.000292137
0.000280971
0.000271605
0.000267335
0.00026095
0.000253444
0.000246301
0.000244259
0.000234937
0.000234272
0.000227878
0.000220905
0.000221183
0.000214262
0.000214906
0.000207839
0.000209014
0.000207462
0.000205472
0.000202484
0.000199911
0.000193873
0.000184032
0.000186255
0.000179934
0.000180808
0.000179845
0.000174219
0.000172693
0.000172129
0.000168353
0.000164677
0.000161915
0.000164941
0.000164852
0.000165295
0.000158246
0.000159569
0.000153565
0.000154556
0.000149253
0.000149793
0.000149324
0.00014604
0.000148603
0.000144642
0.000140085
0.000134223
0.000136144
0.000139239
0.000137546
0.000135548
0.000138042
0.000138145
0.000138307
0.000136022
0.000130442
0.000131079
0.000130889
0.000127139
0.000128068
0.000128237
0.000127813
0.000124649
0.000124967
0.000124255
0.000124679
0.000125397
0.00012617
0.000126393
0.000123452
0.000121852
0.000122381
0.000121938
0.00012228
0.000119638
0.000120181
0.000121001
0.000116931
0.000113478
0.000112661
0.000112117
0.000112773
0.000111613
0.000112084
0.000103642
6.0714e-05
0.000144304
0.000169686
0.00018308
0.000201209
0.000226472
0.000254183
0.000290565
0.000332179
0.00037836
0.000420033
0.000463343
0.000506665
0.000548886
0.000589634
0.000628543
0.000665668
0.000701016
0.000734804
0.000767155
0.000798282
0.000828301
0.000857343
0.000885451
0.000912645
0.000938903
0.000964176
0.000988424
0.00101164
0.00103386
0.00105529
0.00107606
0.0010957
0.00111403
0.00113098
0.00114656
0.00116099
0.00117442
0.00118668
0.00119761
0.00120579
0.00120778
0.00121316
0.00122315
0.00122529
0.00122577
0.00122486
0.00122283
0.00121953
0.00121541
0.00121045
0.00120506
0.00119907
0.00119263
0.00118553
0.00117845
0.0011712
0.00116336
0.0011551
0.00114653
0.00113731
0.0011281
0.00111901
0.00110973
0.00109998
0.00109052
0.00108084
0.00107183
0.00106331
0.00105536
0.001047
0.00103789
0.00102736
0.00101534
0.00100169
0.000987022
0.000971728
0.000956683
0.00094205
0.00092935
0.000919998
0.000913928
0.00091446
0.000921088
0.000931437
0.000933946
0.00092324
0.00090122
0.000866471
0.000821184
0.000769232
0.00071511
0.000663797
0.000617749
0.000577717
0.000545332
0.000518729
0.000497683
0.000480342
0.000465333
0.000453442
0.000443398
0.000435208
0.000427007
0.000418907
0.000409964
0.000404262
0.000397798
0.00039296
0.000386931
0.00038295
0.000377933
0.000377518
0.000373758
0.000369935
0.000365512
0.000360214
0.000351476
0.000349855
0.000342849
0.000343769
0.000340978
0.000338389
0.000336128
0.000333314
0.000329775
0.00032607
0.000322686
0.000320057
0.000316625
0.000312777
0.000308598
0.000299033
0.000298239
0.000295085
0.000292536
0.000289642
0.0002823
0.000282599
0.000279442
0.00027497
0.000270792
0.000266617
0.000266277
0.000264244
0.000258966
0.000258462
0.000256551
0.000254322
0.000250236
0.000242641
0.000243763
0.000243102
0.000242406
0.00023921
0.000240949
0.000233573
0.00022711
0.000223902
0.000220439
0.000223411
0.000219347
0.000218506
0.000217684
0.000215703
0.000212867
0.000207253
0.000204517
0.000202237
0.000204979
0.000202035
0.000204354
0.000202336
0.000199957
0.000196902
0.000193269
0.000188896
0.000183166
0.000180876
0.000165423
8.56073e-05
0.000190447
0.000236662
0.000269128
0.000302802
0.000346121
0.000399368
0.000456447
0.00051678
0.00057846
0.000638293
0.000696365
0.000751632
0.000803562
0.000852049
0.000897215
0.000939339
0.000978798
0.00101598
0.00105128
0.00108503
0.00111754
0.00114901
0.00117961
0.0012094
0.0012384
0.00126669
0.00129422
0.00132088
0.00134655
0.00137139
0.00139527
0.00141797
0.00143929
0.00145909
0.00147722
0.00149362
0.00150814
0.0015206
0.00153097
0.00153833
0.00153902
0.00155129
0.00155682
0.00155899
0.00155917
0.00155787
0.00155529
0.00155154
0.00154693
0.00154129
0.0015348
0.00152759
0.00151974
0.00151132
0.00150242
0.00149304
0.00148315
0.00147278
0.00146196
0.00145066
0.00143905
0.00142723
0.00141522
0.00140301
0.00139079
0.00137855
0.00136645
0.00135445
0.00134244
0.00133015
0.00131742
0.00130399
0.00128977
0.00127467
0.00125881
0.00124232
0.00122549
0.00120842
0.00119172
0.00117616
0.00116201
0.00115053
0.0011414
0.00114225
0.00115104
0.00116523
0.00118304
0.00118268
0.00116557
0.00112938
0.00107751
0.00101554
0.000950055
0.000886448
0.000829052
0.000779552
0.000738352
0.000704673
0.000677032
0.000654785
0.000636428
0.000621049
0.000607995
0.000596351
0.000585836
0.00057651
0.000568535
0.000560933
0.000554126
0.000549206
0.000542729
0.000539731
0.00053452
0.000529805
0.00052559
0.000518845
0.000516597
0.000510947
0.000505262
0.000505409
0.000502487
0.000496071
0.000496233
0.000493163
0.000489901
0.000480539
0.00047973
0.000472891
0.000467863
0.000461735
0.000461857
0.000456882
0.000453175
0.000449065
0.000445065
0.00043351
0.000432678
0.000427393
0.000424132
0.000419882
0.000416479
0.000411305
0.000410912
0.000405362
0.00040146
0.000393546
0.000389794
0.000390641
0.000389655
0.000380164
0.000370691
0.000374244
0.000372024
0.000368163
0.000369005
0.000367634
0.000360502
0.000360985
0.000354082
0.000354577
0.000347386
0.000341508
0.000336593
0.000333766
0.000332629
0.000324835
0.000320939
0.00031719
0.000315262
0.000320742
0.000315197
0.00031399
0.000312413
0.000310617
0.000304877
0.00029761
0.000287848
0.000282896
0.000260133
9.73914e-05
0.000224732
0.000294188
0.000351215
0.00041069
0.000476585
0.000548072
0.000622473
0.000697779
0.000771772
0.000841283
0.000905948
0.000965354
0.0010195
0.00106865
0.00111331
0.00115405
0.00119154
0.00122638
0.00125921
0.00129053
0.00132083
0.00135043
0.00137967
0.00140872
0.00143725
0.00146536
0.001493
0.00152008
0.00154654
0.00157241
0.00159748
0.00162156
0.00164441
0.00166582
0.00168557
0.0017034
0.00171903
0.00173181
0.00174176
0.00174233
0.00175387
0.00176707
0.0017726
0.00177503
0.00177539
0.00177426
0.0017721
0.0017698
0.00176425
0.0017573
0.00174929
0.00174045
0.00173086
0.00172061
0.00170973
0.00169828
0.00168626
0.00167371
0.00166072
0.00164736
0.00163374
0.00161992
0.00160594
0.00159184
0.0015777
0.00156357
0.00154954
0.00153548
0.00152124
0.00150671
0.00149182
0.00147648
0.00146066
0.00144429
0.00142739
0.00141
0.0013922
0.00137396
0.00135567
0.00133777
0.00132053
0.00130507
0.00129169
0.00128248
0.00128273
0.00129272
0.00131153
0.00133789
0.00136526
0.00136924
0.00134942
0.00130546
0.00124513
0.00117461
0.00110185
0.00103295
0.000971333
0.000918614
0.000874673
0.000838803
0.00080964
0.000785912
0.000766407
0.000750209
0.000736336
0.000724452
0.000714118
0.000704989
0.000696783
0.000689666
0.000683042
0.000676957
0.000672629
0.00066756
0.00066448
0.000658449
0.000654037
0.000648681
0.000644192
0.000641428
0.000638737
0.000634654
0.000633418
0.00062906
0.000626294
0.000621822
0.000616795
0.000615192
0.000610506
0.000602619
0.000603169
0.000598818
0.000592472
0.000585516
0.000586372
0.000581858
0.000577053
0.000571481
0.000568023
0.000556948
0.000556589
0.000550656
0.000545936
0.000538661
0.000531558
0.000533115
0.000530063
0.000525527
0.000527024
0.000520693
0.00051068
0.000513332
0.000505269
0.000504485
0.000502204
0.000497577
0.000494792
0.000482259
0.000482872
0.000477259
0.000477508
0.000471951
0.000472515
0.000469437
0.000465893
0.000459261
0.000446111
0.000440516
0.000447304
0.000434778
0.000443242
0.000436333
0.000437539
0.000438018
0.000429567
0.000419982
0.000407465
0.000399776
0.00037349
9.76424e-05
0.000246576
0.000346942
0.000433058
0.000514581
0.000599682
0.000688415
0.000777065
0.000863117
0.000944483
0.00101896
0.00108612
0.00114594
0.00119887
0.00124554
0.00128677
0.00132339
0.00135628
0.00138622
0.00141396
0.00144012
0.00146524
0.00148971
0.00151386
0.00153784
0.00156204
0.00158679
0.00161218
0.0016382
0.00166466
0.00169109
0.00171718
0.00174265
0.00176723
0.00179066
0.00181276
0.00183311
0.00185248
0.00186335
0.00186851
0.00188606
0.00189755
0.00190588
0.00191108
0.00191374
0.00191422
0.00191285
0.00190978
0.00190519
0.00189902
0.00189155
0.00188294
0.00187338
0.00186296
0.00185181
0.00183991
0.00182735
0.00181417
0.00180049
0.00178638
0.00177193
0.0017572
0.00174225
0.00172714
0.00171189
0.00169657
0.00168126
0.00166612
0.00165077
0.00163517
0.00161931
0.00160317
0.00158674
0.00156998
0.00155287
0.00153537
0.00151748
0.00149921
0.00148044
0.00146149
0.00144258
0.00142395
0.00140654
0.00139101
0.00137804
0.00137395
0.00137823
0.0013912
0.00141265
0.00144222
0.00147496
0.00149892
0.00149936
0.00146871
0.00141344
0.00134257
0.00126509
0.00118744
0.00111733
0.00105602
0.0010042
0.000961334
0.000926321
0.000897842
0.000874784
0.000855759
0.00084013
0.000826984
0.000815874
0.000806495
0.000798261
0.000791188
0.000784607
0.000779312
0.000774578
0.000770319
0.000765151
0.00076095
0.000756933
0.000754006
0.000750839
0.000749574
0.000747053
0.000743515
0.000739951
0.000735373
0.000731274
0.000726579
0.000722081
0.000717475
0.00071562
0.000712834
0.000709351
0.00071002
0.000705532
0.0007019
0.000696925
0.00068598
0.000685943
0.000683506
0.000678213
0.000670722
0.000662927
0.000662905
0.000659364
0.000649284
0.000645767
0.000639745
0.000644726
0.000638403
0.00064131
0.000630818
0.000632251
0.000627018
0.000618274
0.000611896
0.000607696
0.000604288
0.000599008
0.000601202
0.000602308
0.000593741
0.000584913
0.000586631
0.000582934
0.00057565
0.000582237
0.000570064
0.00056529
0.000571923
0.000552218
0.000552002
0.000548998
0.000553506
0.00055575
0.000549063
0.00054356
0.000527997
0.000516332
0.000492323
9.64155e-05
0.000272644
0.000398451
0.000508063
0.000613132
0.000718571
0.000823821
0.00092489
0.00101909
0.00110406
0.00117915
0.00124435
0.00129993
0.00134658
0.00138561
0.00141834
0.00144599
0.00146981
0.00149091
0.00151035
0.00152901
0.00154769
0.00156696
0.00158729
0.00160898
0.00163221
0.00165683
0.00168273
0.0017097
0.00173746
0.00176569
0.00179404
0.00182216
0.00184967
0.00187621
0.0019021
0.00192206
0.00193379
0.0019506
0.00197433
0.0019906
0.00200272
0.0020115
0.00201729
0.00202041
0.00202108
0.00201954
0.00201597
0.00201061
0.00200359
0.00199514
0.0019854
0.00197458
0.00196278
0.00195012
0.00193669
0.00192261
0.00190796
0.00189285
0.00187736
0.00186157
0.00184553
0.00182929
0.00181289
0.00179636
0.00177974
0.00176306
0.00174635
0.00172955
0.00171262
0.00169552
0.00167825
0.00166077
0.00164307
0.00162511
0.00160687
0.00158834
0.0015695
0.00155035
0.001531
0.00151162
0.00149237
0.00147423
0.00145778
0.00144351
0.00143822
0.00144057
0.0014499
0.00146626
0.00149029
0.00152165
0.0015581
0.00159372
0.00160015
0.00157846
0.0015314
0.00146525
0.00139148
0.00131273
0.00123675
0.00116796
0.00110836
0.00105817
0.00101678
0.000983166
0.000955812
0.000933873
0.000915994
0.000901757
0.00089027
0.000880803
0.000873207
0.000866517
0.000860709
0.000855559
0.000850692
0.00084585
0.000841346
0.000837059
0.00083451
0.000832157
0.00082983
0.000826855
0.000822955
0.000819651
0.00081584
0.000812667
0.000808859
0.00080542
0.000801305
0.000798191
0.000794998
0.000793397
0.000791132
0.000791035
0.00078649
0.000779311
0.000772641
0.000773154
0.000768778
0.000765387
0.000756423
0.000755246
0.0007495
0.000747123
0.000739214
0.000740504
0.000738842
0.00073969
0.000737644
0.000736856
0.000733198
0.000729324
0.000722799
0.000711286
0.000705166
0.000697509
0.000693928
0.000700285
0.000692912
0.000699287
0.000690892
0.000694034
0.000688404
0.00067382
0.000683925
0.000677272
0.000671635
0.000660912
0.000673378
0.000653312
0.000654455
0.000651916
0.000659841
0.000662046
0.00065688
0.000646733
0.000627854
0.000615772
0.000593525
0.000104498
0.000292829
0.000446627
0.000582873
0.000708657
0.00083202
0.000947215
0.00105268
0.00114729
0.00122964
0.00129948
0.00135748
0.00140487
0.00144331
0.00147407
0.00149873
0.00151877
0.00153571
0.00155084
0.00156536
0.00158022
0.00159621
0.00161384
0.00163347
0.00165524
0.00167918
0.00170514
0.00173293
0.00176229
0.00179292
0.00182445
0.0018565
0.00188868
0.00192039
0.00195283
0.00197708
0.00199425
0.00201672
0.00204781
0.00207084
0.00208891
0.00210289
0.00211325
0.00212024
0.00212413
0.00212511
0.00212346
0.0021194
0.0021132
0.00210507
0.00209529
0.00208403
0.00207152
0.00205791
0.0020434
0.00202811
0.00201219
0.00199574
0.00197888
0.00196167
0.00194419
0.00192648
0.0019086
0.00189057
0.00187242
0.00185418
0.00183587
0.00181749
0.00179903
0.00178049
0.00176184
0.00174307
0.00172417
0.00170511
0.00168586
0.00166642
0.00164676
0.00162688
0.00160677
0.00158654
0.00156633
0.00154625
0.00152724
0.00150991
0.00149474
0.00148858
0.00148992
0.00149773
0.00151126
0.00153044
0.00155621
0.00158858
0.00162641
0.00166369
0.00167796
0.0016645
0.00162493
0.00156489
0.00149123
0.00141158
0.00133263
0.00125916
0.0011939
0.00113798
0.00109143
0.00105309
0.00102246
0.000998005
0.000979701
0.000965268
0.000954294
0.000946049
0.000938863
0.000932347
0.000926338
0.000920661
0.000915261
0.000910055
0.000905718
0.000902556
0.000900123
0.000897321
0.000894598
0.000890996
0.000887637
0.000883904
0.000881191
0.000878131
0.00087546
0.000871985
0.000867819
0.000864088
0.000860223
0.000857679
0.000854807
0.000851539
0.000846997
0.000842013
0.000837827
0.000833785
0.000828258
0.000822829
0.000819755
0.000816638
0.000814604
0.000810634
0.000810907
0.000809449
0.000809358
0.000805562
0.000807499
0.000804536
0.000801578
0.000796011
0.000791176
0.000779363
0.000781185
0.000777202
0.000776678
0.000769165
0.000770537
0.000761304
0.000771734
0.00076867
0.000755799
0.000751086
0.00076135
0.000743074
0.000746013
0.000745402
0.000727631
0.000732185
0.000739916
0.000737283
0.000741975
0.000731623
0.00073042
0.000716127
0.000703438
0.000672547
0.000108871
0.000314773
0.000492859
0.000652346
0.000796705
0.000927493
0.00104528
0.00115113
0.00124394
0.00132218
0.00138625
0.00143761
0.00147791
0.00150902
0.00153273
0.0015509
0.00156523
0.0015774
0.0015888
0.0016007
0.00161402
0.00162949
0.00164749
0.00166827
0.00169181
0.00171803
0.00174669
0.00177756
0.00181032
0.00184468
0.0018803
0.00191679
0.00195357
0.0019928
0.00202385
0.00204766
0.00207482
0.00210925
0.00214461
0.00217122
0.00219264
0.00220961
0.00222246
0.00223136
0.00223654
0.00223824
0.00223675
0.00223234
0.00222537
0.00221611
0.0022049
0.00219198
0.00217765
0.00216213
0.00214565
0.00212837
0.00211045
0.00209201
0.00207317
0.00205399
0.00203455
0.0020149
0.00199508
0.00197512
0.00195506
0.0019349
0.00191467
0.00189437
0.00187401
0.00185357
0.00183306
0.00181246
0.00179175
0.00177094
0.00174999
0.00172889
0.00170764
0.00168623
0.00166466
0.00164301
0.00162141
0.00159998
0.00157955
0.00156078
0.00154405
0.00153628
0.00153604
0.00154223
0.00155383
0.00157015
0.00159105
0.00161763
0.00164977
0.00168648
0.00172288
0.00174384
0.00173761
0.00170467
0.00164891
0.00157684
0.00149604
0.00141361
0.00133519
0.00126453
0.0012035
0.00115202
0.0011109
0.00107851
0.00105587
0.00103757
0.00102507
0.00101538
0.00100622
0.000997776
0.000990024
0.000983025
0.000976599
0.000970602
0.000966999
0.000964357
0.000961655
0.000958293
0.000955372
0.000951603
0.00094849
0.000945771
0.00094344
0.000940912
0.000938158
0.000934998
0.000930882
0.000926776
0.000922205
0.000918056
0.000913467
0.000908594
0.000903627
0.000898305
0.00089372
0.000888886
0.000884754
0.000880334
0.000877288
0.000873999
0.000871089
0.000867648
0.000865209
0.000861991
0.000862043
0.000859315
0.00085528
0.000856407
0.000852551
0.000844879
0.00083991
0.000835328
0.000833756
0.000836195
0.00083034
0.0008299
0.000828133
0.000830637
0.000830901
0.000822763
0.000821633
0.000813525
0.000813929
0.000812812
0.000811168
0.000811194
0.000797285
0.000793655
0.000806548
0.000806776
0.000803901
0.000795107
0.000790132
0.000780964
0.000776486
0.000751835
0.000104746
0.000330958
0.000538607
0.000716346
0.000868883
0.00100221
0.00111988
0.00122373
0.00131362
0.00138781
0.00144637
0.00149171
0.00152597
0.00155132
0.00156982
0.00158352
0.00159428
0.00160387
0.00161374
0.00162516
0.00163894
0.00165571
0.00167569
0.00169895
0.00172532
0.00175461
0.00178651
0.00182074
0.00185701
0.00189505
0.00193463
0.00197502
0.0020201
0.00205972
0.0020917
0.00212627
0.00216599
0.00220877
0.00224452
0.00227513
0.00230094
0.00232202
0.0023384
0.00235015
0.00235745
0.00236054
0.00235976
0.00235545
0.00234806
0.00233793
0.00232552
0.00231114
0.00229517
0.00227786
0.00225951
0.00224028
0.00222038
0.00219992
0.00217905
0.00215784
0.00213636
0.00211467
0.00209281
0.00207082
0.00204873
0.00202654
0.00200428
0.00198196
0.00195957
0.00193712
0.0019146
0.001892
0.00186933
0.00184656
0.00182369
0.00180071
0.00177761
0.00175439
0.00173104
0.00170763
0.00168427
0.00166109
0.00163875
0.00161799
0.00159923
0.00158878
0.00158597
0.00158974
0.00159899
0.0016128
0.00163058
0.00165235
0.0016786
0.0017096
0.00174444
0.00177961
0.00180498
0.0018036
0.0017747
0.00172146
0.00164984
0.00156733
0.00148171
0.0013994
0.00132467
0.00125954
0.00120676
0.00116492
0.00113651
0.00111157
0.00109683
0.00108275
0.00106893
0.0010572
0.00104682
0.00103803
0.00103051
0.00102407
0.00102247
0.00102021
0.00101682
0.00101318
0.00101076
0.00100724
0.00100571
0.00100492
0.00100361
0.00100187
0.000999509
0.0009965
0.000992505
0.000987748
0.000982235
0.000976317
0.000970066
0.00096366
0.000957489
0.000951375
0.00094594
0.000940574
0.00093568
0.000931049
0.00092694
0.000922594
0.000918368
0.000914047
0.000910009
0.000905784
0.00090287
0.000899266
0.000895499
0.000892484
0.000889337
0.000886094
0.000882891
0.000879931
0.000877574
0.000875294
0.00087216
0.000871621
0.00087045
0.000867345
0.000869978
0.00086235
0.000858554
0.000854391
0.000853736
0.000855178
0.000849974
0.000850294
0.000850714
0.00084869
0.00085032
0.000846044
0.000843323
0.000839265
0.00083219
0.000826585
0.000821816
0.000811601
0.000105227
0.000349229
0.000578054
0.000766912
0.000923012
0.00105595
0.00117098
0.00127111
0.00135777
0.00142888
0.00148387
0.00152484
0.00155476
0.00157618
0.00159137
0.00160254
0.00161163
0.0016205
0.00163058
0.00164307
0.00165866
0.00167781
0.00170054
0.00172678
0.00175621
0.00178855
0.00182345
0.00186065
0.00189989
0.00194102
0.0019835
0.00202983
0.00207938
0.00211847
0.00216007
0.00220405
0.00225414
0.00229923
0.00234014
0.0023766
0.00240826
0.00243477
0.00245593
0.00247167
0.00248211
0.0024875
0.00248823
0.00248472
0.00247751
0.00246706
0.00245389
0.00243844
0.00242113
0.00240229
0.00238225
0.00236124
0.00233948
0.00231712
0.00229432
0.00227115
0.00224771
0.00222405
0.00220022
0.00217626
0.0021522
0.00212805
0.00210383
0.00207954
0.00205519
0.00203078
0.0020063
0.00198176
0.00195715
0.00193245
0.00190767
0.0018828
0.00185782
0.00183274
0.00180755
0.00178229
0.00175706
0.00173199
0.00170754
0.00168453
0.00166346
0.00164962
0.00164355
0.00164419
0.00165048
0.00166143
0.00167628
0.00169461
0.0017163
0.00174164
0.00177112
0.00180403
0.00183766
0.00186544
0.00186632
0.00183988
0.0017883
0.00171699
0.00163367
0.00154609
0.00146084
0.00138307
0.00131546
0.00126014
0.00121746
0.0011838
0.00115884
0.00113913
0.00112228
0.00110829
0.00109517
0.00108464
0.001077
0.00106948
0.00106608
0.00106334
0.00106128
0.00105939
0.00105861
0.00105572
0.00105718
0.00105813
0.00105719
0.00105616
0.0010545
0.00105198
0.00104844
0.00104349
0.0010374
0.00103034
0.00102292
0.00101553
0.0010086
0.00100194
0.000995746
0.000989741
0.000983879
0.000978332
0.000973
0.000967637
0.000962287
0.000956965
0.000951845
0.000946894
0.000942537
0.000938338
0.000934385
0.000930426
0.000926839
0.00092359
0.000920364
0.000916857
0.000913454
0.000909758
0.000906146
0.000903011
0.000900301
0.000897175
0.000895282
0.000892317
0.00088966
0.00088697
0.000885588
0.000883521
0.000881258
0.00088001
0.000879841
0.000878606
0.000877184
0.000876097
0.000873683
0.000871833
0.000869435
0.000862756
0.000859355
0.00085032
0.000109128
0.000370925