/*--------------------------------*- C++ -*----------------------------------*\
| =========                 |                                                 |
| \\      /  F ield         | OpenFOAM: The Open Source CFD Toolbox           |
|  \\    /   O peration     | Version:  dev                                   |
|   \\  /    A nd           | Web:      www.OpenFOAM.org                      |
|    \\/     M anipulation  |                                                 |
\*---------------------------------------------------------------------------*/
FoamFile
{
    version     2.0;
    format      ascii;
    class       volScalarField;
    location    "20";
    object      p;
}
// * * * * * * * * * * * * * * * * * * * * * * * * * * * * * * * * * * * * * //

dimensions      [0 2 -2 0 0 0 0];

internalField   nonuniform List<scalar> 
12225
(
12.9891
10.7379
9.711
9.68872
9.47099
9.04691
8.80041
8.82112
8.99064
9.18178
9.337
9.47199
9.63765
9.88064
10.2195
10.8811
11.3015
14.7446
9.82706
9.1405
8.93139
9.2611
9.22478
8.92618
8.76176
8.82804
9.01969
9.21865
9.37547
9.51092
9.67279
9.8923
10.2117
10.7425
11.845
12.3756
9.42468
9.40796
9.29073
9.45524
9.31813
9.00417
8.84234
8.89916
9.07084
9.24562
9.38085
9.50034
9.64536
9.8402
10.1049
10.4887
11.1161
10.8483
9.54518
9.5504
9.39798
9.44766
9.27732
8.99695
8.86349
8.92146
9.07657
9.23015
9.34868
9.45496
9.58312
9.748
9.95923
10.2131
10.4846
10.2715
9.55448
9.52042
9.3642
9.38957
9.2271
8.98662
8.8769
8.93184
9.06891
9.20342
9.30784
9.40201
9.51166
9.64285
9.7969
9.9472
10.0555
9.89524
9.49502
9.45483
9.30164
9.34591
9.20175
8.98604
8.88593
8.93118
9.05084
9.16912
9.26036
9.34159
9.43042
9.52672
9.6245
9.69784
9.71229
9.54824
9.43144
9.3986
9.25068
9.32061
9.19599
8.99111
8.88909
8.92115
9.02425
9.12856
9.20786
9.27658
9.3436
9.40528
9.45243
9.4654
9.41678
9.24972
9.37303
9.34351
9.2099
9.29448
9.19045
8.99264
8.88362
8.89999
8.98521
9.07668
9.14676
9.20408
9.24966
9.2783
9.28193
9.24889
9.1544
8.98598
9.31704
9.29166
9.1764
9.26194
9.17765
8.99028
8.87452
8.87202
8.93838
9.01844
9.08157
9.12695
9.15184
9.15156
9.11984
9.04931
8.91973
8.74417
9.26212
9.23488
9.14297
9.22165
9.15119
8.97934
8.85982
8.8378
8.88385
8.95123
9.00608
9.039
9.04746
9.0244
8.96485
8.86509
8.70925
8.52729
9.20802
9.17703
9.12229
9.18868
9.12082
8.9665
8.84722
8.80603
8.82701
8.87636
8.91908
8.94214
8.93908
8.90016
8.82001
8.69877
8.52671
8.343
9.15917
9.12362
9.09539
9.15294
9.08976
8.95705
8.84096
8.77858
8.76991
8.79576
8.82596
8.84347
8.83695
8.79174
8.70279
8.57013
8.38682
8.19845
9.11212
9.07169
9.04493
9.0988
9.05741
8.956
8.84473
8.75607
8.7106
8.7065
8.72026
8.73226
8.72378
8.68156
8.58963
8.45615
8.26314
8.08052
9.06102
9.0293
8.98059
9.02211
9.01818
8.96292
8.86144
8.74433
8.65371
8.60844
8.59405
8.59371
8.5852
8.54694
8.46442
8.33977
8.15548
7.988
9.00633
8.99313
8.91347
8.92084
8.95058
8.95426
8.88078
8.74619
8.61256
8.51519
8.46224
8.43576
8.42055
8.38743
8.32079
8.21293
8.04075
7.8897
8.94742
8.94081
8.85214
8.81205
8.84576
8.90638
8.88274
8.75845
8.59266
8.44747
8.34174
8.27965
8.23941
8.20524
8.14715
8.06856
7.92416
7.81441
8.88585
8.88414
8.80838
8.72352
8.72603
8.81207
8.84073
8.74864
8.57803
8.39648
8.24915
8.14775
8.08277
8.03495
7.98984
7.93516
7.82899
7.74849
8.82397
8.82096
8.76979
8.6678
8.62969
8.70416
8.75812
8.69868
8.54379
8.35198
8.1775
8.04827
7.96749
7.91376
7.87481
7.83639
7.75522
7.7062
8.76679
8.75261
8.71452
8.62727
8.57484
8.62635
8.67599
8.62749
8.48407
8.29698
8.11978
7.98192
7.89386
7.84013
7.80825
7.78066
7.71704
7.69275
8.74442
8.73034
8.69119
8.61969
8.57794
8.60996
8.63013
8.55013
8.39832
8.21472
8.05917
7.93851
7.87158
7.83265
7.82014
7.80395
7.75977
7.73588
8.74587
8.73267
8.67791
8.61921
8.59195
8.61448
8.5919
8.48297
8.31189
8.14647
8.01325
7.93227
7.88772
7.87624
7.86751
7.85965
7.80825
7.7828
8.76212
8.74648
8.67662
8.63753
8.62969
8.631
8.56469
8.41758
8.24338
8.09474
7.99611
7.94559
7.92718
7.92712
7.92133
7.90098
7.839
7.78831
8.78879
8.77108
8.68684
8.67089
8.67607
8.64487
8.53105
8.35649
8.18464
8.06149
7.99516
7.96918
7.96999
7.97174
7.9653
7.92853
7.85835
7.79259
8.82306
8.80668
8.70324
8.7066
8.71446
8.64849
8.49292
8.30228
8.14332
8.04788
8.00938
8.00402
8.01191
8.01375
7.99317
7.94566
7.85889
7.78195
8.86336
8.85692
8.7308
8.74049
8.73879
8.63649
8.45049
8.25547
8.11525
8.04671
8.0289
8.03735
8.04808
8.04422
8.01182
7.9501
7.85635
7.77611
8.9008
8.93227
8.78491
8.78634
8.76474
8.62544
8.41056
8.21585
8.09574
8.04819
8.04675
8.06276
8.074
8.0628
8.01965
7.94758
7.84931
7.76274
8.88215
9.00248
8.85356
8.8554
8.82273
8.64052
8.3928
8.19119
8.08264
8.05307
8.06177
8.08391
8.09239
8.0737
8.02148
7.94597
7.84601
7.74026
8.75857
8.90797
8.79733
8.8888
8.89231
8.68502
8.4057
8.18932
8.0845
8.0677
8.08629
8.10852
8.1163
8.08864
8.0258
7.94845
7.84887
7.73516
9.05243
8.5498
8.32772
8.58168
8.71134
8.5512
8.29179
8.09388
8.01336
8.0274
8.07185
8.11268
8.13395
8.11174
8.05015
7.97447
7.87921
7.76761
12.0382
10.1988
9.20194
9.10211
9.03125
8.73418
8.381
8.12209
8.00259
7.99339
8.02128
8.04626
8.05007
8.01277
7.93946
7.85267
7.74985
7.63483
6.25349
6.24062
6.21835
6.21638
6.22388
6.20648
6.145
6.03637
5.88701
5.69495
5.4729
5.22775
4.97635
4.7234
4.48122
4.25161
4.04434
3.86034
3.70441
3.57651
3.48015
3.41699
3.38724
3.39332
3.43384
3.51263
3.62557
3.77765
3.96236
4.18442
4.43389
4.71769
5.02415
5.36009
5.71221
6.09043
6.47989
6.89039
7.30565
7.73735
8.16841
8.60973
9.04426
9.4846
9.91375
10.3454
10.7639
11.1833
11.5865
11.9878
12.372
12.7525
13.1133
13.468
13.8039
14.1338
14.4442
14.7477
15.0325
15.3102
15.5702
15.8237
16.0599
16.2904
16.5062
16.717
16.9124
17.1026
17.2782
17.4478
17.6041
17.7571
17.8988
18.0369
18.1632
18.286
18.3981
18.5061
18.6043
18.6997
18.7868
18.8706
18.9472
19.0218
19.0885
19.1511
19.2053
19.2558
19.3015
19.3465
19.3911
19.4306
19.4624
19.4873
19.5063
19.5188
19.5269
19.5316
19.533
19.5316
19.5277
19.522
19.5143
19.5038
19.4913
19.4784
19.4634
19.4476
19.4326
19.4168
19.4008
19.3855
19.3685
19.3504
19.334
19.3193
19.3036
19.2864
19.2676
19.2497
19.2326
19.2142
19.1953
19.1763
19.1586
19.1432
19.1303
19.1163
19.0952
19.071
19.0503
19.0355
19.0211
19.0042
18.9849
18.9657
18.9498
18.9328
18.9134
18.8958
18.8799
18.8654
18.8535
18.8445
18.8315
18.8059
18.7786
18.7588
18.7387
18.7138
18.6949
18.6846
18.6686
18.6445
18.6256
18.6121
18.5974
18.5783
18.5503
18.5278
18.5133
18.4974
18.4789
18.4598
18.4413
18.4254
18.4157
18.4029
18.3894
18.3867
18.3902
18.3929
18.4093
18.4403
18.4839
18.5514
18.6389
18.7747
19.009
19.2741
6.34478
6.32985
6.31927
6.31457
6.28598
6.21406
6.0968
5.93388
5.73328
5.50104
5.25153
4.99243
4.73732
4.49025
4.25971
4.04668
3.85679
3.69014
3.55035
3.43728
3.35303
3.29976
3.27828
3.2897
3.33344
3.4127
3.52537
3.67385
3.85389
4.06873
4.31291
4.58928
4.89083
5.22082
5.57061
5.94404
6.3324
6.73927
7.15464
7.58304
8.01508
8.4544
8.89087
9.32981
9.76254
10.1941
10.6159
11.0344
11.4407
11.8406
12.2275
12.607
12.9707
13.3245
13.6634
13.9927
14.3059
14.6092
14.8984
15.177
15.4406
15.6955
15.9371
16.1697
16.3899
16.6031
16.8039
16.9966
17.1773
17.3498
17.511
17.6655
17.8107
17.9503
18.0801
18.2037
18.3184
18.4275
18.5289
18.626
18.716
18.8007
18.8802
18.9563
19.0263
19.0916
19.1501
19.2037
19.2528
19.301
19.3483
19.3896
19.4224
19.4495
19.4712
19.4848
19.4947
19.5015
19.5044
19.5043
19.5025
19.4988
19.4923
19.4819
19.4696
19.4587
19.4452
19.4295
19.4158
19.4004
19.3843
19.3712
19.3565
19.3375
19.3203
19.3062
19.2916
19.2755
19.2563
19.2389
19.2235
19.2061
19.1884
19.1697
19.1516
19.1339
19.1201
19.1089
19.0895
19.0646
19.042
19.0277
19.0153
18.9997
18.98
18.9599
18.9455
18.9301
18.9119
18.8949
18.8784
18.8611
18.8456
18.8378
18.8291
18.8021
18.7731
18.7562
18.7392
18.7118
18.6899
18.6832
18.6703
18.6429
18.6216
18.608
18.5945
18.5787
18.5491
18.5252
18.5102
18.4944
18.4769
18.458
18.4378
18.4208
18.4135
18.4009
18.385
18.3824
18.3866
18.3861
18.4003
18.4289
18.4706
18.5376
18.6128
18.7306
18.9361
19.1545
6.41153
6.34691
6.28141
6.21148
6.11216
5.97372
5.80124
5.59993
5.38072
5.14896
4.91511
4.68176
4.45678
4.24081
4.03961
3.8527
3.68464
3.53583
3.40958
3.30589
3.22739
3.17662
3.15502
3.16426
3.20488
3.27983
3.38767
3.53059
3.70562
3.91508
4.15509
4.42756
4.72637
5.05337
5.40208
5.77423
6.16299
6.56922
6.98533
7.41361
7.8474
8.28727
8.72562
9.16526
9.60074
10.0333
10.4567
10.8747
11.2826
11.682
12.0699
12.4483
12.8128
13.166
13.5055
13.8333
14.1477
14.4512
14.7426
15.0223
15.289
15.5455
15.7909
16.0265
16.2513
16.4676
16.6729
16.8686
17.0544
17.2314
17.3988
17.5573
17.7071
17.85
17.9849
18.1114
18.2295
18.3407
18.4449
18.5438
18.636
18.7219
18.8032
18.8799
18.9519
19.02
19.0825
19.1389
19.1919
19.244
19.2944
19.3388
19.3741
19.4038
19.4277
19.4436
19.4558
19.4651
19.4697
19.471
19.4709
19.4692
19.4642
19.4548
19.4432
19.4328
19.4212
19.407
19.3935
19.379
19.3638
19.3509
19.3374
19.3199
19.3028
19.2891
19.275
19.2591
19.2416
19.2259
19.2103
19.1922
19.1744
19.1564
19.1404
19.1237
19.1089
19.0964
19.0776
19.0543
19.0325
19.0182
19.0063
18.9918
18.9729
18.9533
18.9386
18.9234
18.906
18.8889
18.8725
18.8547
18.8382
18.8303
18.8225
18.7971
18.7685
18.7508
18.7349
18.7096
18.6867
18.6782
18.6668
18.6406
18.6179
18.603
18.5896
18.5748
18.5473
18.5232
18.5069
18.4901
18.4731
18.4549
18.4339
18.4168
18.4083
18.3968
18.3807
18.3753
18.3788
18.3792
18.3911
18.415
18.4537
18.5156
18.5787
18.6763
18.8383
18.9808
6.29822
6.1894
6.06812
5.93436
5.77706
5.59521
5.39681
5.18616
4.97158
4.75468
4.54211
4.33341
4.13374
3.94194
3.76258
3.59444
3.44168
3.3046
3.18688
3.08926
3.01465
2.96565
2.94428
2.95274
2.99195
3.06507
3.17141
3.31368
3.48895
3.69956
3.94177
4.21721
4.52003
4.85168
5.20575
5.58359
5.97838
6.39083
6.81345
7.2474
7.68616
8.13066
8.57422
9.01822
9.45705
9.89234
10.3191
10.7393
11.1489
11.5493
11.9377
12.3155
12.68
13.0332
13.3733
13.7019
14.0178
14.3223
14.6145
14.896
15.1657
15.4252
15.6738
15.9126
16.1408
16.3597
16.5681
16.7669
16.9561
17.1364
17.3074
17.4694
17.6229
17.7684
17.9057
18.0345
18.1553
18.2687
18.3747
18.4743
18.5671
18.6535
18.7347
18.8112
18.8833
18.9513
19.0146
19.0729
19.1283
19.183
19.2358
19.2828
19.3215
19.3534
19.3791
19.3984
19.4133
19.4248
19.432
19.4356
19.4372
19.4363
19.4319
19.424
19.4143
19.4044
19.3937
19.3813
19.3684
19.3554
19.3417
19.3286
19.3151
19.2995
19.2837
19.27
19.2559
19.2406
19.225
19.2097
19.1937
19.1763
19.1592
19.1425
19.1272
19.1115
19.0961
19.0811
19.0632
19.0428
19.0233
19.0084
18.9955
18.9809
18.9634
18.9453
18.9298
18.9144
18.8977
18.881
18.865
18.8485
18.833
18.8225
18.8111
18.7891
18.7637
18.7443
18.7275
18.706
18.6846
18.6717
18.6592
18.6371
18.6148
18.5984
18.584
18.5676
18.5435
18.5206
18.5028
18.485
18.4675
18.4495
18.4294
18.4129
18.4012
18.3899
18.3757
18.3672
18.3678
18.3696
18.3785
18.3969
18.4301
18.4805
18.534
18.6112
18.727
18.8102
5.98271
5.85199
5.70538
5.54549
5.36803
5.17391
4.97169
4.76446
4.55903
4.35511
4.15763
3.96464
3.78036
3.60259
3.4354
3.27741
3.13263
3.00117
2.88694
2.79107
2.71708
2.66749
2.64497
2.65263
2.69172
2.76559
2.87386
3.01933
3.19954
3.41674
3.66676
3.95112
4.26398
4.60675
4.97243
5.36182
5.76799
6.1916
6.62512
7.06949
7.51785
7.97086
8.42207
8.87277
9.31751
9.75761
10.1884
10.6117
11.0239
11.4264
11.8162
12.1953
12.5611
12.9154
13.2569
13.5872
13.9049
14.2116
14.5066
14.791
15.0641
15.3266
15.5785
15.8203
16.0516
16.273
16.4843
16.6859
16.8779
17.0608
17.2344
17.3992
17.5555
17.7031
17.8422
17.9732
18.0961
18.2112
18.3187
18.419
18.5125
18.5996
18.6806
18.7563
18.8274
18.8943
18.9569
19.0152
19.0708
19.1258
19.1798
19.2285
19.2693
19.3028
19.3304
19.3526
19.3704
19.384
19.3937
19.3996
19.4026
19.4025
19.399
19.3929
19.3847
19.3757
19.3659
19.3549
19.3432
19.3314
19.3189
19.3061
19.2928
19.2785
19.2641
19.2504
19.2361
19.2217
19.2073
19.1926
19.1771
19.1608
19.1445
19.1286
19.113
19.0975
19.082
19.0663
19.0495
19.0314
19.0137
18.9983
18.9842
18.9697
18.9535
18.9365
18.9205
18.9053
18.8894
18.8732
18.8576
18.842
18.8269
18.8137
18.7995
18.7804
18.7583
18.7384
18.7209
18.7015
18.6816
18.6659
18.6519
18.6328
18.6115
18.5938
18.5779
18.5603
18.5389
18.5172
18.4981
18.4796
18.4614
18.4432
18.4245
18.4079
18.3942
18.3819
18.3688
18.359
18.3562
18.3567
18.3622
18.3759
18.4015
18.4395
18.4836
18.5404
18.6151
18.6556
5.5281
5.39328
5.24222
5.07987
4.90461
4.71611
4.52212
4.32484
4.13048
3.93786
3.75126
3.56804
3.39211
3.22091
3.05839
2.90311
2.75931
2.62704
2.51072
2.41192
2.33463
2.28194
2.25708
2.26342
2.30282
2.37909
2.49201
2.64435
2.83367
3.0622
3.32535
3.62432
3.95303
4.3124
4.69503
5.10144
5.52418
5.96373
6.41257
6.87113
7.3321
7.79638
8.25783
8.7173
9.16943
9.6159
10.0521
10.4799
10.8955
11.3009
11.6934
12.0746
12.4427
12.7996
13.1435
13.4766
13.7974
14.1074
14.4058
14.6936
14.97
15.2358
15.4908
15.7355
15.9696
16.1937
16.4078
16.6121
16.8067
16.992
17.1681
17.3353
17.4938
17.6436
17.7846
17.9175
18.0423
18.1588
18.2678
18.3693
18.4637
18.5515
18.6332
18.7089
18.7795
18.8455
18.9074
18.9651
19.0196
19.0741
19.1279
19.177
19.2186
19.2533
19.2824
19.3073
19.3274
19.3431
19.3549
19.3629
19.3673
19.3681
19.3661
19.3616
19.3548
19.3468
19.3383
19.3286
19.318
19.3072
19.2956
19.2834
19.2708
19.2575
19.2442
19.2309
19.217
19.203
19.1896
19.1759
19.1613
19.1457
19.1297
19.114
19.0983
19.0833
19.0684
19.0529
19.0367
19.0201
19.0036
18.9881
18.9734
18.9589
18.9438
18.9274
18.9114
18.8966
18.8813
18.8656
18.8502
18.8348
18.8196
18.805
18.79
18.7725
18.7525
18.7331
18.7152
18.6966
18.6776
18.6607
18.6458
18.6279
18.6074
18.5892
18.572
18.5538
18.5338
18.513
18.4933
18.4743
18.4555
18.4371
18.4189
18.4021
18.387
18.3733
18.3603
18.3498
18.3437
18.3412
18.3434
18.3524
18.3699
18.3968
18.4296
18.4666
18.5075
18.5149
4.99804
4.86889
4.72314
4.56811
4.40368
4.22757
4.0463
3.86099
3.67737
3.49366
3.3141
3.13554
2.9621
2.79109
2.62682
2.46769
2.31836
2.17933
2.05564
1.94921
1.86479
1.80578
1.77645
1.78094
1.82122
1.90137
2.0216
2.18438
2.38702
2.6316
2.91326
3.23258
3.58268
3.9642
4.36941
4.79816
5.24252
5.70268
6.17076
6.64685
7.12347
7.60175
8.07548
8.5456
9.00691
9.46118
9.90385
10.337
10.7574
11.1669
11.563
11.9479
12.3195
12.6799
13.0276
13.3645
13.6891
14.0028
14.3047
14.5961
14.8758
15.1448
15.4029
15.6506
15.8876
16.1146
16.3313
16.5382
16.7353
16.923
17.1015
17.2711
17.4318
17.5837
17.7267
17.8614
17.9879
18.1061
18.2166
18.3193
18.4147
18.5036
18.5861
18.6626
18.7335
18.7995
18.8612
18.9183
18.9722
19.0257
19.0787
19.1273
19.169
19.2045
19.2348
19.2614
19.2833
19.301
19.3151
19.325
19.3308
19.3329
19.3323
19.3293
19.3241
19.3174
19.3102
19.3018
19.2925
19.2825
19.272
19.2606
19.2488
19.2363
19.2238
19.2112
19.1981
19.1849
19.1723
19.1593
19.1451
19.1301
19.1148
19.0993
19.0838
19.0693
19.0552
19.0402
19.0246
19.009
18.9934
18.978
18.9633
18.9488
18.9343
18.9185
18.9025
18.8881
18.8734
18.8582
18.8431
18.8278
18.8126
18.7974
18.782
18.7652
18.7469
18.7282
18.71
18.6917
18.6734
18.6563
18.6407
18.6229
18.6029
18.5847
18.5669
18.5483
18.5289
18.5086
18.4886
18.4692
18.45
18.4314
18.4133
18.396
18.3798
18.3645
18.3509
18.3393
18.3302
18.3245
18.3233
18.3272
18.3369
18.3533
18.3735
18.3923
18.4057
18.387
4.4378
4.31865
4.18161
4.03733
3.88592
3.7232
3.55439
3.37917
3.20303
3.02385
2.84616
2.66656
2.48949
2.31201
2.13906
1.96923
1.80774
1.6551
1.51768
1.39797
1.30165
1.23294
1.19682
1.19794
1.23925
1.32488
1.45499
1.63185
1.85243
2.11859
2.42464
2.7703
3.14822
3.55826
3.99182
4.44841
4.91939
5.40457
5.89565
6.39255
6.88791
7.38275
7.87073
8.35325
8.82534
9.28878
9.7393
10.1793
10.6057
11.0208
11.422
11.8116
12.188
12.5531
12.9054
13.2465
13.5752
13.8928
14.1986
14.4935
14.7766
15.0491
15.3105
15.5613
15.8012
16.0312
16.2508
16.4603
16.66
16.8503
17.0313
17.2033
17.3662
17.5201
17.6652
17.8019
17.9303
18.0503
18.1622
18.2663
18.3631
18.4531
18.5367
18.6141
18.6858
18.7522
18.8143
18.8716
18.9251
18.9779
19.0301
19.078
19.1196
19.1555
19.1868
19.2144
19.2376
19.2571
19.2731
19.2849
19.2922
19.2958
19.2967
19.2954
19.2919
19.2869
19.281
19.274
19.2657
19.2567
19.2471
19.2368
19.2257
19.2141
19.2025
19.1907
19.1784
19.1661
19.1543
19.1417
19.128
19.1138
19.0993
19.0845
19.0693
19.0551
19.0418
19.0275
19.0125
18.9977
18.9827
18.9675
18.9531
18.9389
18.9247
18.9093
18.8937
18.8796
18.8656
18.8507
18.8358
18.8209
18.8059
18.7905
18.7747
18.7583
18.741
18.7232
18.705
18.6869
18.6692
18.6521
18.6358
18.6178
18.5985
18.5803
18.5621
18.5434
18.5242
18.5042
18.4839
18.4642
18.4447
18.4258
18.4077
18.3898
18.3725
18.3559
18.3411
18.328
18.316
18.3074
18.3026
18.3009
18.3032
18.3093
18.3169
18.3195
18.3107
18.2714
3.88031
3.77364
3.64548
3.51182
3.37249
3.22064
3.0602
2.8902
2.71617
2.53529
2.35279
2.16493
1.97684
1.78518
1.59554
1.4067
1.22502
1.05132
0.892939
0.753111
0.63917
0.555911
0.509659
0.506027
0.54852
0.641188
0.78444
0.980211
1.22464
1.51863
1.85591
2.23526
2.64805
3.09362
3.56243
4.05298
4.55574
5.07035
5.58828
6.10929
6.62593
7.13959
7.64399
8.14077
8.6251
9.09915
9.55884
10.007
10.4408
10.8627
11.2702
11.6658
12.0477
12.4179
12.775
13.1206
13.4535
13.7753
14.0849
14.3836
14.6704
14.9464
15.2112
15.4653
15.7085
15.9415
16.164
16.3766
16.5791
16.7721
16.9558
17.1302
17.2955
17.4518
17.599
17.7379
17.8684
17.9902
18.1037
18.2095
18.308
18.3993
18.484
18.5627
18.6353
18.7025
18.7651
18.8229
18.8766
18.9289
18.9808
19.0286
19.0702
19.106
19.1375
19.1659
19.1906
19.2116
19.2293
19.2429
19.2514
19.2565
19.2593
19.2599
19.258
19.2547
19.2502
19.2446
19.2374
19.2295
19.2207
19.2111
19.2011
19.1907
19.1801
19.1691
19.1575
19.1462
19.135
19.1228
19.1098
19.0963
19.0826
19.0689
19.0542
19.0406
19.0276
19.014
18.9998
18.9858
18.9714
18.9566
18.9425
18.9288
18.9148
18.8999
18.885
18.8714
18.8577
18.843
18.8283
18.8141
18.7995
18.7841
18.7682
18.752
18.7353
18.7181
18.7002
18.6824
18.6651
18.6479
18.6311
18.613
18.5945
18.5761
18.5574
18.5388
18.5198
18.4999
18.4793
18.4592
18.4397
18.4205
18.4022
18.3837
18.3653
18.3474
18.3311
18.3162
18.3016
18.29
18.2813
18.2742
18.2691
18.2653
18.261
18.2495
18.2227
18.1674
3.35212
3.25899
3.13911
3.01411
2.88287
2.73708
2.57964
2.40813
2.22893
2.03898
1.84375
1.63909
1.43092
1.21569
0.999905
0.782332
0.570739
0.366125
0.177735
0.00966765
-0.128964
-0.23178
-0.291133
-0.301017
-0.256844
-0.154615
0.00573039
0.225792
0.500981
0.831161
1.20854
1.63049
2.08699
2.57622
3.08727
3.61808
4.15827
4.70688
5.25528
5.8035
6.34404
6.87857
7.40106
7.91357
8.41147
8.89741
9.36761
9.82518
10.2674
10.6968
11.1111
11.5129
11.9002
12.2756
12.6374
12.9876
13.3248
13.6507
13.9642
14.2667
14.5574
14.8371
15.1053
15.3629
15.6095
15.8458
16.0714
16.287
16.4927
16.6885
16.8748
17.052
17.2199
17.3788
17.5284
17.6694
17.8021
17.9261
18.0414
18.149
18.2493
18.3423
18.4283
18.5081
18.5821
18.6504
18.7137
18.772
18.826
18.8787
18.9304
18.9782
19.0199
19.0559
19.0877
19.1168
19.1427
19.165
19.184
19.1989
19.209
19.2158
19.2204
19.2227
19.2227
19.2209
19.2179
19.2135
19.2075
19.2006
19.1929
19.1843
19.1754
19.1661
19.1566
19.1463
19.1356
19.1253
19.1148
19.103
19.0907
19.0778
19.065
19.0521
19.0383
19.0254
19.0126
18.9994
18.9864
18.9732
18.9593
18.945
18.9313
18.918
18.9045
18.8903
18.8761
18.8628
18.8495
18.8352
18.8208
18.8072
18.793
18.7776
18.7617
18.7458
18.7294
18.7127
18.6952
18.6778
18.6607
18.6434
18.6265
18.6086
18.5904
18.5718
18.5529
18.5343
18.5155
18.4957
18.475
18.4546
18.4348
18.4152
18.3967
18.3776
18.358
18.3388
18.321
18.3043
18.2873
18.2725
18.2597
18.2474
18.2353
18.2223
18.2073
18.1834
18.1419
18.0739
2.87708
2.80003
2.68845
2.56925
2.44127
2.29462
2.1324
1.95187
1.7594
1.55093
1.33338
1.1019
0.863276
0.613516
0.360471
0.102466
-0.150696
-0.397123
-0.62589
-0.831683
-1.00289
-1.13169
-1.20838
-1.2262
-1.17971
-1.06447
-0.880971
-0.629029
-0.314405
0.0617032
0.48953
0.96467
1.47493
2.01694
2.57827
3.15574
3.73851
4.32562
4.90792
5.48594
6.0525
6.60961
7.15153
7.68085
8.19332
8.69208
9.17345
9.64062
10.0911
10.5278
10.9485
11.3561
11.7488
12.1291
12.4954
12.85
13.1914
13.5212
13.8386
14.145
14.4395
14.7227
14.9946
15.2558
15.5059
15.7455
15.9744
16.1931
16.4018
16.6008
16.7901
16.9701
17.1406
17.302
17.4542
17.5978
17.7326
17.8586
17.9761
18.0859
18.188
18.2826
18.3702
18.4513
18.5267
18.5966
18.6609
18.7198
18.7745
18.8277
18.8797
18.9275
18.9694
19.0059
19.0381
19.0676
19.0944
19.1177
19.1378
19.1539
19.1654
19.1736
19.1798
19.1838
19.1858
19.1858
19.1845
19.1815
19.1767
19.171
19.1645
19.1572
19.1495
19.1411
19.1325
19.1231
19.1133
19.1035
19.0936
19.0827
19.0711
19.0587
19.0467
19.0345
19.0216
19.0094
18.997
18.9846
18.9726
18.9599
18.9464
18.933
18.9199
18.9069
18.8939
18.8804
18.8668
18.8539
18.8413
18.8274
18.8132
18.8001
18.7862
18.7709
18.7553
18.7396
18.7235
18.7072
18.6903
18.6732
18.6561
18.6389
18.6221
18.6044
18.5863
18.5677
18.5487
18.5301
18.5109
18.4914
18.471
18.4503
18.43
18.4102
18.3912
18.3714
18.3508
18.3303
18.3109
18.2924
18.2732
18.2552
18.2382
18.2208
18.2021
18.181
18.1563
18.1214
18.0679
17.9901
2.48038
2.42002
2.31609
2.19978
2.0694
1.91554
1.74181
1.54396
1.32966
1.09365
0.843249
0.573708
0.292893
-0.00390204
-0.306747
-0.61785
-0.925671
-1.22721
-1.50864
-1.7631
-1.97603
-2.138
-2.23673
-2.26447
-2.21493
-2.0835
-1.87103
-1.57821
-1.21281
-0.778309
-0.287343
0.253044
0.828001
1.43218
2.05144
2.68208
3.31249
3.94158
4.56042
5.17022
5.76408
6.34465
6.90667
7.45316
7.98004
8.49095
8.98263
9.45857
9.91647
10.3597
10.7862
11.199
11.5965
11.9812
12.3517
12.7102
13.0555
13.3893
13.7105
14.0206
14.3187
14.6057
14.8812
15.146
15.3996
15.6427
15.8749
16.0968
16.3086
16.5108
16.7032
16.8861
17.0591
17.2229
17.3778
17.5237
17.6609
17.7893
17.9092
18.021
18.1249
18.2214
18.3108
18.3938
18.471
18.5422
18.6077
18.6675
18.723
18.777
18.8295
18.8775
18.9198
18.9569
18.9895
19.0193
19.0464
19.07
19.0908
19.1079
19.1207
19.1306
19.1381
19.1437
19.1474
19.1496
19.1503
19.149
19.1456
19.1411
19.1356
19.1297
19.1231
19.1156
19.1078
19.0996
19.0906
19.0811
19.0716
19.0616
19.0508
19.0392
19.0279
19.0165
19.0043
18.9928
18.9814
18.9699
18.9584
18.9463
18.9336
18.9211
18.9085
18.8956
18.883
18.8703
18.8573
18.8448
18.8327
18.8192
18.8055
18.7928
18.7789
18.764
18.7489
18.7333
18.7172
18.7014
18.6853
18.6685
18.6513
18.6341
18.6174
18.6
18.5822
18.5637
18.5445
18.5257
18.5065
18.4874
18.4672
18.446
18.4254
18.4051
18.3856
18.3652
18.3437
18.3221
18.301
18.2807
18.2593
18.2381
18.2171
18.1949
18.1703
18.142
18.1083
18.064
18.0007
17.9151
2.19112
2.14637
2.04844
1.93194
1.795
1.6279
1.43497
1.21148
0.966077
0.692713
0.399676
0.0808483
-0.253957
-0.610926
-0.977864
-1.35618
-1.73227
-2.10214
-2.44897
-2.76427
-3.02975
-3.23398
-3.36119
-3.4012
-3.34688
-3.1943
-2.94525
-2.60138
-2.17287
-1.66684
-1.09962
-0.481494
0.169195
0.844556
1.52852
2.21697
2.89832
3.57186
4.22893
4.87145
5.49266
6.09595
6.67665
7.23865
7.77821
8.29951
8.79986
9.28322
9.74731
10.1958
10.627
11.0441
11.4455
11.8341
12.2083
12.5705
12.9194
13.2569
13.5817
13.8954
14.197
14.4878
14.767
15.0352
15.292
15.5385
15.7743
15.9997
16.2146
16.4197
16.6149
16.8006
16.9764
17.1429
17.3002
17.4485
17.5881
17.7189
17.8413
17.9552
18.0607
18.1593
18.2512
18.3362
18.415
18.4875
18.5543
18.6155
18.6723
18.7269
18.7798
18.8278
18.8704
18.9081
18.9416
18.9718
18.9988
19.0225
19.0434
19.061
19.0752
19.0867
19.0955
19.1028
19.1083
19.1123
19.1149
19.1154
19.1137
19.1105
19.1062
19.1014
19.0957
19.0893
19.0825
19.0753
19.0671
19.0581
19.0489
19.0396
19.0299
19.0195
19.009
18.9985
18.9872
18.9764
18.966
18.9555
18.9446
18.9332
18.9213
18.9092
18.8968
18.8843
18.8723
18.8604
18.8482
18.836
18.8241
18.8111
18.798
18.7854
18.7716
18.7571
18.7424
18.7269
18.7111
18.6958
18.6802
18.6636
18.6465
18.6295
18.613
18.5959
18.5783
18.5598
18.5404
18.5214
18.5025
18.4835
18.4633
18.4419
18.4211
18.4003
18.3802
18.3591
18.3369
18.3139
18.2914
18.2695
18.2458
18.2214
18.1968
18.1701
18.1401
18.1053
18.0636
18.011
17.9397
17.8482
2.05213
2.01135
1.92152
1.80436
1.65699
1.47117
1.25268
0.99531
0.709442
0.388962
0.042726
-0.337225
-0.738907
-1.16877
-1.61338
-2.07321
-2.53216
-2.98562
-3.41237
-3.80101
-4.12924
-4.38321
-4.54406
-4.59846
-4.53703
-4.35683
-4.06154
-3.6552
-3.15129
-2.56142
-1.90676
-1.20182
-0.468398
0.283217
1.03595
1.78511
2.51894
3.23702
3.93102
4.604
5.25019
5.87352
6.47012
7.04474
7.59428
8.12329
8.62984
9.11832
9.58676
10.039
10.4735
10.8938
11.2983
11.6899
12.0672
12.4325
12.7847
13.1254
13.4537
13.7709
14.0761
14.3703
14.6529
14.9247
15.185
15.4349
15.674
15.9027
16.1207
16.3289
16.5271
16.7157
16.8944
17.0636
17.2234
17.3741
17.5158
17.6488
17.7731
17.8891
17.9967
18.0974
18.1911
18.2781
18.3585
18.4326
18.5006
18.5637
18.621
18.6765
18.7296
18.7782
18.8211
18.8593
18.8934
18.924
18.9514
18.9754
18.9964
19.0142
19.0295
19.0422
19.0526
19.0615
19.0688
19.0743
19.0784
19.0807
19.0808
19.0792
19.0762
19.0721
19.0672
19.0619
19.0564
19.0503
19.0429
19.0345
19.0257
19.0171
19.0088
18.9998
18.9906
18.9811
18.9706
18.9603
18.9507
18.9412
18.9308
18.92
18.9088
18.897
18.8848
18.8729
18.8617
18.8507
18.8392
18.8273
18.8156
18.8031
18.7906
18.7779
18.7643
18.7501
18.7355
18.7205
18.7052
18.6903
18.675
18.6585
18.6417
18.625
18.6086
18.5917
18.5742
18.5559
18.5365
18.5174
18.4988
18.4797
18.4593
18.438
18.417
18.3958
18.3748
18.3531
18.3302
18.3061
18.2823
18.2586
18.2328
18.2055
18.1775
18.1467
18.1118
18.0711
18.0226
17.9629
17.8847
17.7885
2.09971
2.04378
1.97051
1.85149
1.69032
1.48058
1.23023
0.933822
0.600939
0.22309
-0.186854
-0.637544
-1.11646
-1.63115
-2.16548
-2.71924
-3.27249
-3.81909
-4.33508
-4.80571
-5.2036
-5.51052
-5.7052
-5.7721
-5.6998
-5.48671
-5.13968
-4.66495
-4.08019
-3.40234
-2.6576
-1.8638
-1.04582
-0.216638
0.605195
1.41379
2.19748
2.9566
3.68381
4.38237
5.04863
5.68699
6.29496
6.87754
7.43329
7.96649
8.47635
8.96691
9.43749
9.89131
10.3279
10.7497
11.1565
11.5501
11.9302
12.2979
12.6531
12.9966
13.3284
13.6486
13.9575
14.2548
14.5412
14.8163
15.0805
15.3336
15.576
15.8078
16.0293
16.2402
16.4415
16.6326
16.8142
16.9858
17.1483
17.3011
17.445
17.5801
17.7061
17.824
17.9337
18.0362
18.1314
18.2201
18.3022
18.3772
18.448
18.511
18.5705
18.6263
18.68
18.7291
18.7725
18.8112
18.8457
18.8766
18.9044
18.9289
18.9502
18.9683
18.9843
18.9979
19.01
19.0205
19.0291
19.0357
19.0411
19.0447
19.0466
19.0466
19.0449
19.0418
19.0378
19.0337
19.0299
19.025
19.0184
19.0105
19.0024
18.9948
18.9878
18.9803
18.9722
18.9636
18.9541
18.9442
18.9353
18.9265
18.9164
18.906
18.8954
18.8845
18.8729
18.8614
18.8508
18.8408
18.8299
18.8186
18.8071
18.7951
18.783
18.7704
18.757
18.7431
18.7287
18.7142
18.6996
18.685
18.6698
18.6533
18.6369
18.6208
18.6044
18.5877
18.5704
18.5522
18.533
18.5138
18.4951
18.476
18.4555
18.4343
18.4132
18.3915
18.3697
18.3473
18.3237
18.2988
18.2737
18.2481
18.2203
18.1906
18.1594
18.1248
18.0854
18.0395
17.9852
17.9194
17.8354
17.7353
2.3362
2.27992
2.22562
2.10604
1.92705
1.68575
1.39667
1.05091
0.66405
0.223399
-0.256547
-0.787336
-1.35051
-1.95719
-2.58655
-3.24032
-3.89138
-4.53518
-5.13984
-5.6918
-6.15678
-6.51608
-6.74213
-6.82105
-6.73912
-6.49865
-6.10708
-5.5715
-4.9121
-4.1492
-3.31515
-2.43163
-1.52972
-0.624048
0.262597
1.12604
1.95255
2.7458
3.49746
4.21479
4.89267
5.53965
6.15169
6.73724
7.293
7.82673
8.33533
8.82578
9.2951
9.74929
10.1854
10.6086
11.0157
11.4114
11.7928
12.1634
12.5207
12.8678
13.2021
13.5262
13.838
14.1394
14.4291
14.7082
14.9755
15.2328
15.4777
15.7132
15.9374
16.1519
16.3554
16.5499
16.7333
16.9079
17.0723
17.2274
17.3746
17.5107
17.6398
17.7584
17.8711
17.9739
18.0715
18.1606
18.244
18.3216
18.3931
18.4593
18.5188
18.576
18.63
18.6792
18.7232
18.7626
18.7981
18.8292
18.857
18.8822
18.9041
18.9228
18.939
18.953
18.9663
18.9786
18.9884
18.9961
19.0022
19.007
19.0103
19.0116
19.0113
19.0098
19.0067
19.0041
19.0025
18.9988
18.9933
18.9863
18.9784
18.9718
18.9661
18.9596
18.9526
18.9453
18.9368
18.9277
18.9193
18.9108
18.9009
18.8908
18.8811
18.8716
18.861
18.8497
18.8395
18.83
18.8199
18.8097
18.7986
18.7868
18.7751
18.7627
18.7496
18.736
18.722
18.708
18.694
18.6799
18.6645
18.648
18.632
18.6166
18.6003
18.5837
18.5666
18.5486
18.5295
18.5104
18.4916
18.4723
18.4519
18.4308
18.4095
18.3874
18.3649
18.3418
18.3175
18.292
18.2656
18.2383
18.2087
18.1768
18.1426
18.1044
18.0611
18.0108
17.9514
17.8802
17.7915
17.6881
2.82769
2.79785
2.75735
2.63026
2.42679
2.15133
1.82054
1.42624
0.981687
0.476692
-0.0718199
-0.677311
-1.32266
-2.01502
-2.7333
-3.47827
-4.22074
-4.95489
-5.64761
-6.28337
-6.82627
-7.25155
-7.52666
-7.63584
-7.56371
-7.30957
-6.88073
-6.28681
-5.55284
-4.70572
-3.78386
-2.81587
-1.8369
-0.866093
0.0731081
0.975792
1.83076
2.64226
3.40484
4.12662
4.80501
5.44908
6.05668
6.63648
7.18637
7.71417
8.21773
8.70366
9.16961
9.62116
10.0559
10.4782
10.8852
11.2819
11.6647
12.0372
12.3964
12.7465
13.0837
13.4113
13.726
14.0315
14.3243
14.6061
14.8788
15.1386
15.3887
15.6251
15.8537
16.0694
16.2774
16.4735
16.6609
16.8357
17.0018
17.1596
17.3073
17.4478
17.5766
17.6992
17.8116
17.9175
18.0145
18.1061
18.1888
18.268
18.343
18.4102
18.4712
18.5291
18.5831
18.6321
18.6763
18.7168
18.7535
18.7844
18.8119
18.8377
18.8603
18.8796
18.8964
18.9101
18.9234
18.9367
18.9477
18.9567
18.9636
18.9692
18.9734
18.9762
18.9775
18.9781
18.9754
18.9743
18.9749
18.9717
18.9677
18.9626
18.9549
18.9491
18.9446
18.9385
18.9327
18.9267
18.9191
18.911
18.9033
18.8953
18.8859
18.8759
18.8667
18.8586
18.8497
18.8386
18.8287
18.8196
18.81
18.8009
18.7901
18.7786
18.7675
18.7551
18.7425
18.7296
18.7157
18.7017
18.6884
18.675
18.6598
18.6431
18.6276
18.6127
18.5966
18.5799
18.5629
18.5453
18.5265
18.5074
18.4884
18.469
18.4488
18.4276
18.406
18.3835
18.3606
18.3368
18.3118
18.2856
18.2582
18.2293
18.198
18.164
18.1273
18.0858
18.039
17.9852
17.9212
17.8451
17.7524
17.6464
3.53199
3.52324
3.48518
3.34354
3.11706
2.81647
2.4545
2.02277
1.53365
0.978329
0.37291
-0.293628
-1.00825
-1.77586
-2.57674
-3.40976
-4.24613
-5.07589
-5.86642
-6.5925
-7.21621
-7.70998
-8.03626
-8.17505
-8.11187
-7.84424
-7.37948
-6.73068
-5.9282
-5.00685
-4.01097
-2.97599
-1.94014
-0.926062
0.0441078
0.965068
1.82942
2.6416
3.4
4.11304
4.78076
5.41233
6.00763
6.57528
7.11426
7.63201
8.12711
8.60589
9.06615
9.51383
9.94562
10.3652
10.7738
11.1687
11.5549
11.9266
12.2901
12.6402
12.9824