/*--------------------------------*- C++ -*----------------------------------*\
| =========                 |                                                 |
| \\      /  F ield         | OpenFOAM: The Open Source CFD Toolbox           |
|  \\    /   O peration     | Version:  dev                                   |
|   \\  /    A nd           | Web:      www.OpenFOAM.org                      |
|    \\/     M anipulation  |                                                 |
\*---------------------------------------------------------------------------*/
FoamFile
{
    version     2.0;
    format      ascii;
    class       surfaceScalarField;
    location    "20";
    object      phi;
}
// * * * * * * * * * * * * * * * * * * * * * * * * * * * * * * * * * * * * * //

dimensions      [0 3 -1 0 0 0 0];

internalField   nonuniform List<scalar> 
24170
(
3.12951e-06
5.88464e-08
3.04598e-06
8.33313e-08
2.97179e-06
7.4104e-08
2.90235e-06
6.9622e-08
2.83526e-06
6.72145e-08
2.77391e-06
6.12123e-08
2.72126e-06
5.28003e-08
2.6762e-06
4.4881e-08
2.63734e-06
3.8926e-08
2.60325e-06
3.39031e-08
2.57339e-06
2.99115e-08
2.54618e-06
2.70702e-08
2.51974e-06
2.64433e-08
2.49037e-06
2.92682e-08
2.45189e-06
3.85157e-08
2.39369e-06
5.81139e-08
2.2798e-06
1.13647e-07
2.05841e-07
2.0736e-06
3.45207e-06
2.39882e-08
3.45651e-06
7.8666e-08
3.45025e-06
8.01475e-08
3.43833e-06
8.17156e-08
3.42177e-06
8.39601e-08
3.40214e-06
8.08145e-08
3.38086e-06
7.4154e-08
3.35795e-06
6.76152e-08
3.33379e-06
6.30077e-08
3.30806e-06
5.94489e-08
3.28099e-06
5.69148e-08
3.25233e-06
5.55944e-08
3.22249e-06
5.61965e-08
3.19099e-06
6.06413e-08
3.15854e-06
7.08704e-08
3.12133e-06
9.515e-08
3.09271e-06
1.41854e-07
2.29002e-07
3.06917e-06
3.66808e-06
1.83944e-08
3.67876e-06
6.79525e-08
3.68437e-06
7.46041e-08
3.68733e-06
7.88622e-08
3.68733e-06
8.39766e-08
3.68444e-06
8.36361e-08
3.67936e-06
7.93126e-08
3.6721e-06
7.48174e-08
3.66299e-06
7.21865e-08
3.65155e-06
7.0838e-08
3.63766e-06
7.08649e-08
3.62092e-06
7.23105e-08
3.60117e-06
7.59722e-08
3.578e-06
8.38016e-08
3.55133e-06
9.75775e-08
3.52205e-06
1.24405e-07
3.49932e-06
1.64429e-07
2.30932e-07
3.4973e-06
3.92605e-06
1.77243e-08
3.93511e-06
5.88411e-08
3.94088e-06
6.87847e-08
3.94516e-06
7.46779e-08
3.94832e-06
8.08772e-08
3.94966e-06
8.22802e-08
3.94923e-06
7.97592e-08
3.9471e-06
7.68932e-08
3.94354e-06
7.57137e-08
3.93827e-06
7.60552e-08
3.93108e-06
7.8012e-08
3.92158e-06
8.17325e-08
3.90945e-06
8.80108e-08
3.89453e-06
9.86104e-08
3.87676e-06
1.1521e-07
3.8591e-06
1.41866e-07
3.84252e-06
1.80648e-07
2.35897e-07
3.8372e-06
4.20804e-06
1.68017e-08
4.21502e-06
5.1859e-08
4.2198e-06
6.41179e-08
4.22358e-06
7.09574e-08
4.22717e-06
7.72867e-08
4.22963e-06
7.9792e-08
4.23053e-06
7.89236e-08
4.2299e-06
7.754e-08
4.22805e-06
7.76331e-08
4.22487e-06
7.92604e-08
4.22027e-06
8.26687e-08
4.21398e-06
8.80477e-08
4.20582e-06
9.61958e-08
4.19586e-06
1.08587e-07
4.18444e-06
1.2665e-07
4.17353e-06
1.52734e-07
4.16472e-06
1.89333e-07
2.34984e-07
4.16563e-06
4.51034e-06
1.55472e-08
4.51601e-06
4.62155e-08
4.52017e-06
5.9973e-08
4.5236e-06
6.75566e-08
4.52706e-06
7.38271e-08
4.52976e-06
7.70784e-08
4.53108e-06
7.76045e-08
4.53098e-06
7.76422e-08
4.52975e-06
7.88683e-08
4.5274e-06
8.16103e-08
4.52392e-06
8.61186e-08
4.51922e-06
9.27034e-08
4.51324e-06
1.02094e-07
4.50626e-06
1.15474e-07
4.49883e-06
1.33972e-07
4.49246e-06
1.58951e-07
4.48987e-06
1.91674e-07
2.28739e-07
4.49576e-06
4.83397e-06
1.42969e-08
4.83879e-06
4.14227e-08
4.8427e-06
5.61691e-08
4.84605e-06
6.42673e-08
4.84928e-06
7.06035e-08
4.85193e-06
7.44441e-08
4.85341e-06
7.61812e-08
4.8536e-06
7.75182e-08
4.85272e-06
7.98107e-08
4.85086e-06
8.35402e-08
4.84808e-06
8.89469e-08
4.84441e-06
9.64098e-08
4.83995e-06
1.06577e-07
4.83508e-06
1.20355e-07
4.83053e-06
1.38544e-07
4.8277e-06
1.61721e-07
4.82916e-06
1.90029e-07
2.20492e-07
4.83775e-06
5.18074e-06
1.31391e-08
5.1849e-06
3.73054e-08
5.18867e-06
5.24427e-08
5.19206e-06
6.09105e-08
5.19511e-06
6.75589e-08
5.19761e-06
7.19456e-08
5.19918e-06
7.46454e-08
5.19964e-06
7.70574e-08
5.19912e-06
8.03522e-08
5.19772e-06
8.4922e-08
5.19557e-06
9.10802e-08
5.19281e-06
9.91122e-08
5.18964e-06
1.09693e-07
5.18658e-06
1.23372e-07
5.18439e-06
1.4067e-07
5.18437e-06
1.61622e-07
5.18863e-06
1.85813e-07
2.10373e-07
5.19863e-06
5.55238e-06
1.20978e-08
5.55602e-06
3.37244e-08
5.55968e-06
4.88914e-08
5.56309e-06
5.75743e-08
5.56604e-06
6.46554e-08
5.56839e-06
6.96359e-08
5.57004e-06
7.30687e-08
5.57081e-06
7.63616e-08
5.57073e-06
8.05015e-08
5.56987e-06
8.58395e-08
5.56843e-06
9.25414e-08
5.56662e-06
1.00942e-07
5.56474e-06
1.11567e-07
5.56336e-06
1.24765e-07
5.56328e-06
1.40759e-07
5.56561e-06
1.5924e-07
5.57183e-06
1.7949e-07
1.99663e-07
5.58299e-06
5.95075e-06
1.11247e-08
5.95394e-06
3.05755e-08
5.95753e-06
4.53554e-08
5.96091e-06
5.42633e-08
5.96376e-06
6.18591e-08
5.96603e-06
6.74156e-08
5.96779e-06
7.13288e-08
5.96893e-06
7.52345e-08
5.96937e-06
8.00283e-08
5.96918e-06
8.59309e-08
5.96858e-06
9.30502e-08
5.96783e-06
1.01612e-07
5.96729e-06
1.1201e-07
5.96757e-06
1.24431e-07
5.96939e-06
1.38837e-07
5.97369e-06
1.54827e-07
5.98162e-06
1.71693e-07
1.87747e-07
5.9935e-06
6.37779e-06
1.0154e-08
6.3805e-06
2.79391e-08
6.38402e-06
4.19515e-08
6.38732e-06
5.1061e-08
6.39017e-06
5.90808e-08
6.39254e-06
6.51003e-08
6.39451e-06
6.94113e-08
6.39603e-06
7.37457e-08
6.39704e-06
7.90067e-08
6.3976e-06
8.53113e-08
6.39795e-06
9.26263e-08
6.39836e-06
1.01078e-07
6.39924e-06
1.11046e-07
6.40117e-06
1.2239e-07
6.40481e-06
1.35108e-07
6.41089e-06
1.48623e-07
6.42011e-06
1.62278e-07
1.75257e-07
6.43289e-06
5.74176e-06
9.24321e-09
5.7436e-06
2.61361e-08
5.74628e-06
3.93542e-08
5.749e-06
4.84044e-08
5.75169e-06
5.64729e-08
5.75412e-06
6.27162e-08
5.75615e-06
6.74201e-08
5.75774e-06
7.21489e-08
5.75893e-06
7.77709e-08
5.75989e-06
8.42577e-08
5.76084e-06
9.1502e-08
5.76213e-06
9.99111e-08
5.76398e-06
1.09079e-07
5.76697e-06
1.19502e-07
5.77145e-06
1.30544e-07
5.77794e-06
1.42149e-07
5.7869e-06
1.53559e-07
1.64004e-07
5.79824e-06
6.99932e-06
8.07964e-09
7.00119e-06
2.43397e-08
7.00425e-06
3.63673e-08
7.00739e-06
4.53497e-08
7.01036e-06
5.35301e-08
7.01315e-06
5.99585e-08
7.01568e-06
6.48592e-08
7.01796e-06
6.98069e-08
7.02003e-06
7.55733e-08
7.02198e-06
8.20662e-08
7.02423e-06
8.94623e-08
7.02679e-06
9.72596e-08
7.03026e-06
1.05861e-07
7.03488e-06
1.14853e-07
7.04132e-06
1.24326e-07
7.0499e-06
1.33703e-07
7.06102e-06
1.42682e-07
1.50598e-07
7.07466e-06
8.53204e-06
6.90873e-09
8.53418e-06
2.22338e-08
8.5375e-06
3.31551e-08
8.54116e-06
4.17232e-08
8.54474e-06
5.00219e-08
8.54814e-06
5.65635e-08
8.55139e-06
6.16311e-08
8.55456e-06
6.65529e-08
8.55775e-06
7.22756e-08
8.56123e-06
7.87122e-08
8.56507e-06
8.57225e-08
8.56961e-06
9.30077e-08
8.57504e-06
1.00555e-07
8.58198e-06
1.08137e-07
8.59073e-06
1.15693e-07
8.60181e-06
1.22892e-07
8.61539e-06
1.29331e-07
1.34609e-07
8.63176e-06
1.04001e-05
6.06279e-09
1.04028e-05
1.95817e-08
1.04064e-05
2.96461e-08
1.04107e-05
3.7541e-08
1.04152e-05
4.55111e-08
1.04197e-05
5.22284e-08
1.0424e-05
5.72833e-08
1.04285e-05
6.22061e-08
1.04333e-05
6.75222e-08
1.04387e-05
7.36559e-08
1.04447e-05
7.9934e-08
1.04517e-05
8.6489e-08
1.04596e-05
9.26022e-08
1.04693e-05
9.86724e-08
1.04809e-05
1.04139e-07
1.04948e-05
1.09098e-07
1.05112e-05
1.13047e-07
1.15889e-07
1.05299e-05
1.26776e-05
5.24998e-09
1.26809e-05
1.63547e-08
1.2685e-05
2.57235e-08
1.26899e-05
3.2757e-08
1.26956e-05
3.99663e-08
1.27015e-05
4.64001e-08
1.27075e-05
5.15323e-08
1.27137e-05
5.60139e-08
1.27208e-05
6.0867e-08
1.27286e-05
6.60147e-08
1.27377e-05
7.14787e-08
1.27474e-05
7.66211e-08
1.27587e-05
8.15346e-08
1.27713e-05
8.57818e-08
1.27861e-05
8.94795e-08
1.28026e-05
9.23061e-08
1.28214e-05
9.42483e-08
9.5078e-08
1.2842e-05
1.5454e-05
4.43673e-09
1.54578e-05
1.27778e-08
1.54629e-05
2.07561e-08
1.54688e-05
2.69007e-08
1.5476e-05
3.28887e-08
1.5484e-05
3.86063e-08
1.54923e-05
4.34293e-08
1.55011e-05
4.7468e-08
1.55107e-05
5.14547e-08
1.55215e-05
5.55373e-08
1.55334e-05
5.96922e-08
1.55466e-05
6.35229e-08
1.55611e-05
6.69162e-08
1.55771e-05
6.96588e-08
1.55946e-05
7.17235e-08
1.56138e-05
7.29257e-08
1.56346e-05
7.31846e-08
7.26598e-08
1.56568e-05
1.88386e-05
3.50796e-09
1.88429e-05
8.74238e-09
1.88492e-05
1.44942e-08
1.88569e-05
1.93224e-08
1.88661e-05
2.37078e-08
1.88769e-05
2.80112e-08
1.88883e-05
3.20499e-08
1.89005e-05
3.55544e-08
1.89132e-05
3.88102e-08
1.89272e-05
4.18773e-08
1.8942e-05
4.47567e-08
1.89584e-05
4.72645e-08
1.89758e-05
4.92732e-08
1.89947e-05
5.06729e-08
1.90148e-05
5.13771e-08
1.90363e-05
5.1317e-08
1.90589e-05
5.04334e-08
4.90857e-08
1.90824e-05
2.29655e-05
1.36363e-09
2.29704e-05
3.93839e-09
2.29784e-05
6.52336e-09
2.29882e-05
9.523e-09
2.29997e-05
1.2134e-08
2.30134e-05
1.45617e-08
2.30283e-05
1.71796e-08
2.30442e-05
1.99449e-08
2.30606e-05
2.25341e-08
2.30779e-05
2.47369e-08
2.30961e-05
2.6518e-08
2.31155e-05
2.78308e-08
2.31359e-05
2.86532e-08
2.31572e-05
2.90397e-08
2.31795e-05
2.88448e-08
2.32022e-05
2.81988e-08
2.32256e-05
2.69534e-08
2.56662e-08
2.32485e-05
1.68122e-05
-1.84742e-10
1.68162e-05
-1.9295e-11
1.68225e-05
3.94166e-11
1.68303e-05
1.53867e-09
1.68396e-05
2.86684e-09
1.68502e-05
4.04968e-09
1.68617e-05
5.64656e-09
1.68741e-05
7.99263e-09
1.68865e-05
1.00773e-08
1.68995e-05
1.20386e-08
1.69126e-05
1.3312e-08
1.69261e-05
1.42962e-08
1.69399e-05
1.48364e-08
1.69536e-05
1.49996e-08
1.69678e-05
1.48083e-08
1.69814e-05
1.41082e-08
1.69957e-05
1.30563e-08
1.20742e-08
1.70091e-05
1.46359e-05
-1.51357e-09
1.46399e-05
-4.22198e-09
1.46463e-05
-6.39644e-09
1.46541e-05
-6.31976e-09
1.46629e-05
-6.0262e-09
1.46726e-05
-5.77892e-09
1.46831e-05
-4.59127e-09
1.46937e-05
-2.70233e-09
1.47048e-05
-6.94972e-10
1.47158e-05
9.25128e-10
1.47269e-05
2.15018e-09
1.47381e-05
3.02656e-09
1.4749e-05
3.55759e-09
1.47602e-05
3.81605e-09
1.47709e-05
3.69647e-09
1.47819e-05
3.24616e-09
1.47923e-05
2.36511e-09
1.75138e-09
1.4803e-05
1.27414e-05
-2.76558e-09
1.27455e-05
-8.26099e-09
1.27518e-05
-1.28381e-08
1.27593e-05
-1.38796e-08
1.27677e-05
-1.4477e-08
1.27767e-05
-1.48041e-08
1.27861e-05
-1.39344e-08
1.27956e-05
-1.21663e-08
1.28052e-05
-1.02781e-08
1.28148e-05
-8.7528e-09
1.28244e-05
-7.49375e-09
1.28337e-05
-6.5693e-09
1.28429e-05
-5.87078e-09
1.2852e-05
-5.4573e-09
1.28608e-05
-5.38803e-09
1.28696e-05
-5.57443e-09
1.28781e-05
-6.17962e-09
-6.46414e-09
1.28863e-05
1.10921e-05
-3.90327e-09
1.10961e-05
-1.22769e-08
1.11025e-05
-1.90767e-08
1.11098e-05
-2.11075e-08
1.11178e-05
-2.24884e-08
1.11261e-05
-2.32672e-08
1.11347e-05
-2.24504e-08
1.11432e-05
-2.0666e-08
1.11517e-05
-1.88152e-08
1.11601e-05
-1.71739e-08
1.11684e-05
-1.58218e-08
1.11763e-05
-1.46766e-08
1.1184e-05
-1.37529e-08
1.11913e-05
-1.31353e-08
1.11987e-05
-1.27165e-08
1.12055e-05
-1.2682e-08
1.12124e-05
-1.2917e-08
-1.30004e-08
1.12188e-05
9.65603e-06
-4.68661e-09
9.66044e-06
-1.6594e-08
9.66681e-06
-2.53522e-08
9.67367e-06
-2.7943e-08
9.68109e-06
-2.98763e-08
9.68887e-06
-3.09914e-08
9.6967e-06
-3.02756e-08
9.70444e-06
-2.83886e-08
9.71204e-06
-2.63453e-08
9.7194e-06
-2.45191e-08
9.72647e-06
-2.29126e-08
9.73319e-06
-2.15201e-08
9.73963e-06
-2.03454e-08
9.74583e-06
-1.94454e-08
9.75175e-06
-1.88333e-08
9.75746e-06
-1.84437e-08
9.76291e-06
-1.84131e-08
-1.82715e-08
9.76819e-06
8.40529e-06
-4.60648e-09
8.41063e-06
-2.18076e-08
8.41694e-06
-3.15594e-08
8.4232e-06
-3.4138e-08
8.43005e-06
-3.67073e-08
8.43733e-06
-3.82988e-08
8.44463e-06
-3.75245e-08
8.45172e-06
-3.54361e-08
8.45853e-06
-3.31085e-08
8.46498e-06
-3.09108e-08
8.47104e-06
-2.89597e-08
8.47678e-06
-2.72257e-08
8.48217e-06
-2.5826e-08
8.48732e-06
-2.46617e-08
8.49216e-06
-2.37339e-08
8.49668e-06
-2.30035e-08
8.50078e-06
-2.25835e-08
-2.22267e-08
8.50476e-06
7.31468e-06
-1.97212e-09
7.32169e-06
-2.87328e-08
7.32817e-06
-3.79789e-08
7.33427e-06
-4.01641e-08
7.34114e-06
-4.35655e-08
7.34831e-06
-4.53953e-08
7.3552e-06
-4.43835e-08
7.36169e-06
-4.18823e-08
7.36771e-06
-3.90777e-08
7.37322e-06
-3.63685e-08
7.37826e-06
-3.39373e-08
7.3829e-06
-3.18639e-08
7.38716e-06
-3.00393e-08
7.39105e-06
-2.85457e-08
7.39456e-06
-2.72338e-08
7.39756e-06
-2.59911e-08
7.39992e-06
-2.49895e-08
-2.40663e-08
7.40172e-06
6.36339e-06
4.72849e-09
6.37262e-06
-3.79186e-08
6.38026e-06
-4.55324e-08
6.38748e-06
-4.7551e-08
6.39514e-06
-5.10393e-08
6.40218e-06
-5.24154e-08
6.40834e-06
-5.0503e-08
6.41372e-06
-4.72233e-08
6.4184e-06
-4.372e-08
6.42237e-06
-4.02805e-08
6.42566e-06
-3.72493e-08
6.42843e-06
-3.45284e-08
6.43057e-06
-3.2133e-08
6.43207e-06
-2.99997e-08
6.43289e-06
-2.79971e-08
6.43294e-06
-2.6013e-08
6.4321e-06
-2.41332e-08
-2.22334e-08
6.43018e-06
5.54156e-06
8.64476e-09
5.55151e-06
-4.78e-08
5.55963e-06
-5.37107e-08
5.56773e-06
-5.5692e-08
5.57501e-06
-5.81605e-08
5.58025e-06
-5.75552e-08
5.58369e-06
-5.38984e-08
5.58576e-06
-4.9254e-08
5.58671e-06
-4.46307e-08
5.58663e-06
-4.02174e-08
5.58562e-06
-3.61964e-08
5.58364e-06
-3.24691e-08
5.5806e-06
-2.89822e-08
5.57636e-06
-2.56749e-08
5.57095e-06
-2.25128e-08
5.56454e-06
-1.95245e-08
5.55715e-06
-1.67969e-08
-1.44966e-08
5.54941e-06
4.85853e-06
-2.22596e-08
4.86534e-06
-5.456e-08
4.86599e-06
-5.43888e-08
4.86422e-06
-5.39655e-08
4.85994e-06
-5.3693e-08
4.85285e-06
-5.03394e-08
4.84364e-06
-4.46253e-08
4.83306e-06
-3.86297e-08
4.82156e-06
-3.31051e-08
4.80943e-06
-2.80821e-08
4.79651e-06
-2.32378e-08
4.78246e-06
-1.83006e-08
4.76727e-06
-1.36715e-08
4.75113e-06
-9.42783e-09
4.73455e-06
-5.83519e-09
4.71814e-06
-3.05853e-09
4.70209e-06
-7.32686e-10
2.66661e-10
4.68728e-06
4.18042e-06
4.12586e-06
4.07146e-06
4.01752e-06
3.96384e-06
3.9135e-06
3.86888e-06
3.83026e-06
3.79715e-06
3.76908e-06
3.74586e-06
3.72758e-06
3.71393e-06
3.70452e-06
3.6987e-06
3.69564e-06
3.6949e-06
3.69518e-06
8.40521e-08
-7.46012e-08
1.11254e-07
-1.62203e-08
8.52307e-08
3.37354e-08
8.71817e-09
8.41411e-08
-1.24511e-07
1.40334e-07
-2.9924e-07
1.80909e-07
-5.04247e-07
2.11311e-07
-7.37401e-07
2.35829e-07
-9.81628e-07
2.4907e-07
-1.23407e-06
2.53236e-07
-1.48013e-06
2.50232e-07
-1.72175e-06
2.41638e-07
-1.94721e-06
2.29228e-07
-2.16156e-06
2.14168e-07
-2.35594e-06
1.97822e-07
-2.53686e-06
1.80794e-07
-2.69762e-06
1.63946e-07
-2.84509e-06
1.47384e-07
-2.97394e-06
1.31582e-07
-3.09052e-06
1.16351e-07
-3.19024e-06
1.01934e-07
-3.27875e-06
8.80019e-08
-3.35188e-06
7.47334e-08
-3.41434e-06
6.1761e-08
-3.46267e-06
4.93113e-08
-3.50037e-06
3.71361e-08
-3.52509e-06
2.55288e-08
-3.53962e-06
1.43905e-08
-3.54351e-06
4.39593e-09
-3.53869e-06
-4.49013e-09
-3.52595e-06
-1.25896e-08
-3.50488e-06
-2.02653e-08
-3.47747e-06
-2.77067e-08
-3.44152e-06
-3.4766e-08
-3.40105e-06
-4.14846e-08
-3.35168e-06
-4.77765e-08
-3.29938e-06
-5.38735e-08
-3.23792e-06
-5.93065e-08
-3.1754e-06
-6.44143e-08
-3.10372e-06
-6.89002e-08
-3.0329e-06
-7.29904e-08
-2.95281e-06
-7.68016e-08
-2.87499e-06
-8.04392e-08
-2.78814e-06
-8.3288e-08
-2.70516e-06
-8.64685e-08
-2.61331e-06
-8.81417e-08
-2.52699e-06
-9.01637e-08
-2.43152e-06
-9.12187e-08
-2.34285e-06
-9.27186e-08
-2.2443e-06
-9.31123e-08
-2.15347e-06
-9.4055e-08
-2.05242e-06
-9.38145e-08
-1.95966e-06
-9.44495e-08
-1.8573e-06
-9.418e-08
-1.76484e-06
-9.49027e-08
-1.66191e-06
-9.41593e-08
-1.569e-06
-9.46359e-08
-1.46565e-06
-9.41203e-08
-1.37378e-06
-9.48024e-08
-1.27065e-06
-9.37265e-08
-1.17911e-06
-9.42132e-08
-1.07641e-06
-9.35604e-08
-9.87518e-07
-9.43869e-08
-8.87062e-07
-9.20182e-08
-8.03691e-07
-9.12346e-08
-7.05071e-07
-8.96332e-08
-6.21637e-07
-9.25794e-08
-5.1838e-07
-9.24385e-08
-4.32309e-07
-9.63986e-08
-3.20718e-07
-1.00145e-07
-2.20858e-07
-1.09962e-07
-9.72574e-08
-1.13564e-07
9.11274e-09
-1.14553e-07
1.28824e-07
-1.10965e-07
2.31963e-07
-1.08589e-07
3.44276e-07
-1.03521e-07
4.41735e-07
-9.98284e-08
5.43781e-07
-9.44121e-08
6.31156e-07
-9.06243e-08
7.22194e-07
-8.52617e-08
8.00428e-07
-8.13239e-08
8.81121e-07
-7.66117e-08
9.50905e-07
-7.40039e-08
1.02448e-06
-7.05907e-08
1.0901e-06
-6.88155e-08
1.15964e-06
-6.71783e-08
1.22361e-06
-6.72417e-08
1.28863e-06
-6.66714e-08
1.34824e-06
-6.67308e-08
1.40554e-06
-6.69452e-08
1.46548e-06
-6.67067e-08
1.5285e-06
-6.60812e-08
1.59273e-06
-6.51395e-08
1.65647e-06
-6.37182e-08
1.71949e-06
-6.26385e-08
1.78151e-06
-6.15045e-08
1.842e-06
-5.99247e-08
1.90105e-06
-5.8419e-08
1.95909e-06
-5.73507e-08
2.01569e-06
-5.57799e-08
2.07065e-06
-5.40291e-08
2.1242e-06
-5.21733e-08
2.17641e-06
-5.06835e-08
2.22753e-06
-4.91354e-08
2.27659e-06
-4.7389e-08
2.32414e-06
-4.58481e-08
2.3699e-06
-4.46869e-08
2.41402e-06
-4.31311e-08
2.45599e-06
-4.15307e-08
2.49683e-06
-4.03499e-08
2.53637e-06
-3.94536e-08
2.5746e-06
-3.80179e-08
2.61117e-06
-3.66786e-08
2.6465e-06
-3.5269e-08
2.68057e-06
-3.42997e-08
2.71344e-06
-3.28823e-08
2.74486e-06
-3.17282e-08
2.7753e-06
-3.0727e-08
2.80461e-06
-2.99513e-08
2.83327e-06
-2.91574e-08
2.86093e-06
-2.80723e-08
2.88795e-06
-2.69634e-08
2.91452e-06
-2.64921e-08
2.94077e-06
-2.598e-08
2.96582e-06
-2.50779e-08
2.9901e-06
-2.42304e-08
3.01356e-06
-2.36842e-08
3.03632e-06
-2.28616e-08
3.05809e-06
-2.20899e-08
3.07913e-06
-2.12071e-08
3.09906e-06
-2.02896e-08
3.11847e-06
-1.9616e-08
3.13724e-06
-1.914e-08
3.15524e-06
-1.82287e-08
3.17254e-06
-1.77029e-08
3.1893e-06
-1.70196e-08
3.20509e-06
-1.62494e-08
3.22074e-06
-1.6115e-08
3.23556e-06
-1.56673e-08
3.24961e-06
-1.50277e-08
3.26313e-06
-1.46467e-08
3.27581e-06
-1.36542e-08
3.28826e-06
-1.33397e-08
3.30062e-06
-1.30723e-08
3.31255e-06
-1.26056e-08
3.32433e-06
-1.23483e-08
3.33547e-06
-1.1698e-08
3.34633e-06
-1.13376e-08
3.35649e-06
-1.06603e-08
3.36606e-06
-1.00048e-08
3.37544e-06
-9.85378e-09
3.38459e-06
-9.60218e-09
3.39338e-06
-9.27171e-09
3.40155e-06
-8.63212e-09
3.40925e-06
-8.19346e-09
3.41663e-06
-7.82892e-09
3.4238e-06
-7.6457e-09
3.43058e-06
-7.20511e-09
3.43648e-06
-6.33692e-09
3.44208e-06
-5.9827e-09
3.44775e-06
-6.05936e-09
3.45307e-06
-5.6482e-09
3.45779e-06
-5.0525e-09
3.46184e-06
-4.3237e-09
3.46435e-06
-2.78618e-09
3.46494e-06
-7.88416e-10
3.46381e-06
9.22235e-10
3.46105e-06
2.63082e-09
3.45642e-06
4.51901e-09
3.44943e-06
6.94981e-09
3.43948e-06
9.92132e-09
3.42551e-06
1.40275e-08
3.40611e-06
1.94725e-08
3.38002e-06
2.62782e-08
3.34482e-06
3.53831e-08
3.29692e-06
4.82279e-08
3.22928e-06
6.79628e-08
3.13199e-06
9.77544e-08
2.97684e-06
1.55581e-07
2.22695e-07
2.75456e-06
-7.83493e-08
1.15697e-08
-2.03208e-07
1.16184e-07
-3.91972e-07
2.27536e-07
-6.23833e-07
3.20383e-07
-8.75596e-07
3.95613e-07
-1.13718e-06
4.4519e-07
-1.39204e-06
4.68939e-07
-1.63004e-06
4.75378e-07
-1.8456e-06
4.67001e-07
-2.03911e-06
4.47591e-07
-2.20776e-06
4.21065e-07
-2.35612e-06
3.90445e-07
-2.48295e-06
3.58102e-07
-2.59416e-06
3.25687e-07
-2.68873e-06
2.94333e-07
-2.77223e-06
2.64621e-07
-2.84328e-06
2.36848e-07
-2.90652e-06
2.10976e-07
-2.96019e-06
1.86911e-07
-3.00799e-06
1.6439e-07
-3.04796e-06
1.43224e-07
-3.08302e-06
1.23135e-07
-3.11134e-06
1.03981e-07
-3.13523e-06
8.55271e-08
-3.15308e-06
6.77225e-08
-3.16646e-06
5.04077e-08
-3.17414e-06
3.35828e-08
-3.17685e-06
1.71305e-08
-3.17322e-06
9.85795e-10
-3.16257e-06
-1.4961e-08
-3.14456e-06
-3.0539e-08
-3.11877e-06
-4.57171e-08
-3.08621e-06
-6.03774e-08
-3.04603e-06
-7.44696e-08
-2.99998e-06
-8.78847e-08
-2.94662e-06
-1.00545e-07
-2.88852e-06
-1.12415e-07
-2.82364e-06
-1.23416e-07
-2.75495e-06
-1.33545e-07
-2.68016e-06
-1.42701e-07
-2.60258e-06
-1.50987e-07
-2.51982e-06
-1.58451e-07
-2.43554e-06
-1.65242e-07
-2.34659e-06
-1.71183e-07
-2.25758e-06
-1.76327e-07
-2.1644e-06
-1.80516e-07
-2.0715e-06
-1.84088e-07
-1.97483e-06
-1.86875e-07
-1.87925e-06
-1.8927e-07
-1.7803e-06
-1.90958e-07
-1.68235e-06
-1.92303e-07
-1.58095e-06
-1.93079e-07
-1.48129e-06
-1.93861e-07
-1.37906e-06
-1.94298e-07
-1.27878e-06
-1.94808e-07
-1.17538e-06
-1.94899e-07
-1.07405e-06
-1.95275e-07
-9.70282e-07
-1.95383e-07
-8.68659e-07
-1.95748e-07
-7.63964e-07
-1.95662e-07
-6.61705e-07
-1.95873e-07
-5.56893e-07
-1.96067e-07
-4.54212e-07
-1.97382e-07
-3.46261e-07
-1.98587e-07
-2.37835e-07
-2.00397e-07
-1.25058e-07
-2.01589e-07
-1.50747e-08
-2.03163e-07
9.70862e-08
-2.03793e-07
2.04906e-07
-2.047e-07
3.11071e-07
-2.0551e-07
4.07887e-07
-2.07252e-07
5.02633e-07
-2.07327e-07
5.93781e-07
-2.06058e-07
6.8665e-07
-2.02769e-07
7.77092e-07
-1.98875e-07
8.69048e-07
-1.93699e-07
9.58122e-07
-1.88243e-07
1.047e-06
-1.81846e-07
1.13213e-06
-1.75514e-07
1.21663e-06
-1.68641e-07
1.29735e-06
-1.62179e-07
1.37697e-06
-1.55738e-07
1.45266e-06
-1.50293e-07
1.52762e-06
-1.45131e-07
1.59959e-06
-1.41214e-07
1.67092e-06
-1.38177e-07
1.73965e-06
-1.36434e-07
1.80675e-06
-1.35085e-07
1.86994e-06
-1.3409e-07
1.93051e-06
-1.33288e-07
1.99206e-06
-1.32114e-07
2.0548e-06
-1.30604e-07
2.11807e-06
-1.28644e-07
2.18098e-06
-1.26466e-07
2.243e-06
-1.24086e-07
2.30373e-06
-1.21755e-07
2.36365e-06
-1.19174e-07
2.42246e-06
-1.16667e-07
2.48004e-06
-1.14173e-07
2.53639e-06
-1.11448e-07
2.59189e-06
-1.08553e-07
2.64651e-06
-1.05671e-07
2.7002e-06
-1.02852e-07
2.75256e-06
-9.99589e-08
2.80373e-06
-9.69917e-08
2.8533e-06
-9.41969e-08
2.90124e-06
-9.16374e-08
2.9479e-06
-8.91648e-08
2.99346e-06
-8.66186e-08
3.03744e-06
-8.40982e-08
3.07998e-06
-8.18149e-08
3.1214e-06
-7.94166e-08
3.16173e-06
-7.69904e-08
3.20092e-06
-7.45432e-08
3.23901e-06
-7.24695e-08
3.27635e-06
-7.03728e-08
3.3129e-06
-6.84445e-08
3.34834e-06
-6.65723e-08
3.38255e-06
-6.46705e-08
3.41578e-06
-6.28772e-08
3.44848e-06
-6.10124e-08
3.48058e-06
-5.90486e-08
3.51167e-06
-5.73945e-08
3.54171e-06
-5.58825e-08
3.57101e-06
-5.43171e-08
3.59952e-06
-5.27998e-08
3.62714e-06
-5.14338e-08
3.6539e-06
-4.98092e-08
3.6798e-06
-4.81936e-08
3.70503e-06
-4.66754e-08
3.72965e-06
-4.51668e-08
3.7536e-06
-4.38385e-08
3.77677e-06
-4.25864e-08
3.79935e-06
-4.11044e-08
3.82112e-06
-3.97806e-08
3.8422e-06
-3.84361e-08
3.86257e-06
-3.69883e-08
3.88171e-06
-3.58246e-08
3.90007e-06
-3.47977e-08
3.91801e-06
-3.39276e-08
3.93546e-06
-3.30577e-08
3.95281e-06
-3.18716e-08
3.96959e-06
-3.08241e-08
3.98562e-06
-2.97142e-08
4.00095e-06
-2.84672e-08
4.0155e-06
-2.73781e-08
4.02974e-06
-2.6372e-08
4.04353e-06
-2.55349e-08
4.0568e-06
-2.43094e-08
4.0696e-06
-2.31935e-08
4.08198e-06
-2.26059e-08
4.09384e-06
-2.18543e-08
4.10501e-06
-2.08234e-08
4.11575e-06
-1.97891e-08
4.12618e-06
-1.90194e-08
4.13614e-06
-1.81914e-08
4.14542e-06
-1.73174e-08
4.15413e-06
-1.62888e-08
4.16243e-06
-1.49949e-08
4.17047e-06
-1.43564e-08
4.17781e-06
-1.37077e-08
4.18424e-06
-1.23647e-08
4.1899e-06
-1.09694e-08
4.19493e-06
-9.58126e-09
4.19971e-06
-7.77586e-09
4.20438e-06
-5.61706e-09
4.20867e-06
-3.49455e-09
4.21196e-06
-7.4989e-10
4.21411e-06
2.32388e-09
4.21518e-06
5.89772e-09
4.21469e-06
1.04541e-08
4.21245e-06
1.63889e-08
4.20807e-06
2.4012e-08
4.20062e-06
3.39908e-08
4.18887e-06
4.7432e-08
4.17169e-06
6.58265e-08
4.14694e-06
9.31805e-08
4.11239e-06
1.32896e-07
4.06048e-06
2.08084e-07
3.14327e-07
3.96946e-06
-2.13028e-07
2.29661e-07
-4.57903e-07
3.65223e-07
-7.08215e-07
4.80866e-07
-9.50915e-07
5.65731e-07
-1.17285e-06
6.19938e-07
-1.36969e-06
6.43883e-07
-1.5416e-06
6.42886e-07
-1.68972e-06
6.24697e-07
-1.81588e-06
5.95036e-07
-1.92624e-06
5.5865e-07
-2.02257e-06
5.19083e-07
-2.11054e-06
4.78815e-07
-2.19036e-06
4.39459e-07
-2.2663e-06
4.01901e-07
-2.33707e-06
3.66534e-07
-2.40557e-06
3.33396e-07
-2.46969e-06
3.02327e-07
-2.53146e-06
2.73053e-07
-2.58855e-06
2.45244e-07
-2.64246e-06
2.18575e-07
-2.69095e-06
1.92756e-07
-2.73515e-06
1.67526e-07
-2.7731e-06
1.42688e-07
-2.80559e-06
1.18089e-07
-2.83102e-06
9.36426e-08
-2.84988e-06
6.92871e-08
-2.86105e-06
4.5022e-08
-2.86475e-06
2.08482e-08
-2.86051e-06
-3.16665e-09
-2.84849e-06
-2.69247e-08
-2.82881e-06
-5.02528e-08
-2.80137e-06
-7.30016e-08
-2.76687e-06
-9.50157e-08
-2.72497e-06
-1.16142e-07
-2.67681e-06
-1.36235e-07
-2.62182e-06
-1.55189e-07
-2.56154e-06
-1.72905e-07
-2.49513e-06
-1.8932e-07
-2.4244e-06
-2.04415e-07
-2.34834e-06
-2.18138e-07
-2.2689e-06
-2.30514e-07
-2.18508e-06
-2.41601e-07
-2.09898e-06
-2.51483e-07
-2.00944e-06
-2.60145e-07
-1.91852e-06
-2.67588e-07
-1.82481e-06
-2.73877e-07
-1.73029e-06
-2.79146e-07
-1.63347e-06
-2.83455e-07
-1.53631e-06
-2.86953e-07
-1.43729e-06
-2.89697e-07
-1.33811e-06
-2.91835e-07
-1.23718e-06
-2.93402e-07
-1.13639e-06
-2.94643e-07
-1.03446e-06
-2.95589e-07
-9.32761e-07
-2.96371e-07
-8.29789e-07
-2.96964e-07
-7.27044e-07
-2.97573e-07
-6.23367e-07
-2.98047e-07
-5.19959e-07
-2.98556e-07
-4.15137e-07
-2.99322e-07
-3.09605e-07
-3.00691e-07
-2.02566e-07
-3.02216e-07
-9.58444e-08
-3.03651e-07
1.07384e-08
-3.04657e-07
1.15949e-07
-3.05386e-07
2.20394e-07
-3.05674e-07
3.23095e-07
-3.0571e-07
4.24859e-07
-3.05227e-07
5.24732e-07
-3.0443e-07
6.22761e-07
-3.03278e-07
7.17539e-07
-3.01903e-07
8.10218e-07
-2.99711e-07
9.00924e-07
-2.96602e-07
9.90851e-07
-2.92355e-07
1.0796e-06
-2.87282e-07
1.16786e-06
-2.8134e-07
1.25491e-06
-2.74786e-07
1.34112e-06
-2.67562e-07
1.42583e-06
-2.59958e-07
1.50944e-06
-2.51945e-07
1.59117e-06
-2.43815e-07
1.67116e-06
-2.35697e-07
1.74888e-06
-2.28126e-07
1.82491e-06
-2.21103e-07
1.89882e-06
-2.15096e-07
1.97093e-06
-2.10109e-07
2.04085e-06
-2.06279e-07
2.10833e-06
-2.03213e-07
2.17221e-06
-2.00617e-07
2.23356e-06
-1.98224e-07
2.29466e-06
-1.95743e-07
2.35622e-06
-1.92992e-07
2.41754e-06
-1.90004e-07
2.47833e-06
-1.8677e-07
2.53819e-06
-1.83418e-07
2.59704e-06
-1.79909e-07
2.65488e-06
-1.76414e-07
2.7118e-06
-1.72863e-07
2.76761e-06
-1.6931e-07
2.82251e-06
-1.65566e-07
2.87663e-06
-1.61703e-07
2.92995e-06
-1.57852e-07
2.98245e-06
-1.53897e-07
3.03381e-06
-1.49934e-07
3.08416e-06
-1.45947e-07
3.13309e-06
-1.42139e-07
3.18068e-06
-1.38376e-07
3.22684e-06
-1.34847e-07
3.27197e-06
-1.31329e-07
3.31584e-06
-1.27822e-07
3.35858e-06
-1.24381e-07
3.40022e-06
-1.21062e-07
3.44096e-06
-1.17683e-07
3.48074e-06
-1.14424e-07
3.51963e-06
-1.11379e-07
3.55761e-06
-1.08501e-07
3.59464e-06
-1.05655e-07
3.63062e-06
-1.02937e-07
3.66567e-06
-1.00132e-07
3.69983e-06
-9.74377e-08
3.73346e-06
-9.47591e-08
3.76652e-06
-9.20597e-08
3.79885e-06
-8.94831e-08
3.8301e-06
-8.70137e-08
3.86053e-06
-8.46277e-08
3.89006e-06
-8.23785e-08
3.91878e-06
-8.01957e-08
3.94676e-06
-7.79421e-08
3.97401e-06
-7.55603e-08
4.00046e-06
-7.33181e-08
4.02632e-06
-7.11799e-08
4.05156e-06
-6.92993e-08
4.07608e-06
-6.72764e-08
4.09991e-06
-6.51719e-08
4.12306e-06
-6.31215e-08
4.1455e-06
-6.11425e-08
4.1674e-06
-5.91751e-08
4.18842e-06
-5.73179e-08
4.20865e-06
-5.56804e-08
4.22826e-06
-5.4323e-08
4.24734e-06
-5.29456e-08
4.26608e-06
-5.12958e-08
4.2843e-06
-4.962e-08
4.302e-06
-4.78937e-08
4.3191e-06
-4.6006e-08
4.33539e-06
-4.40437e-08
4.35121e-06
-4.25541e-08
4.36664e-06
-4.12738e-08
4.3817e-06
-3.9682e-08
4.39631e-06
-3.8094e-08
4.41036e-06
-3.69582e-08
4.42399e-06
-3.57732e-08
4.43701e-06
-3.41597e-08
4.44948e-06
-3.25532e-08
4.46148e-06
-3.13331e-08
4.47293e-06
-2.99392e-08
4.48377e-06
-2.84576e-08
4.49415e-06
-2.69445e-08
4.504e-06
-2.5129e-08
4.51329e-06
-2.38888e-08
4.52178e-06
-2.24455e-08
4.52963e-06
-2.043e-08
4.53686e-06
-1.84087e-08
4.54339e-06
-1.62936e-08
4.54936e-06
-1.39119e-08
4.5549e-06
-1.12965e-08
4.5598e-06
-8.52352e-09
4.56376e-06
-4.80294e-09
4.56664e-06
-6.32864e-10
4.56841e-06
4.0914e-09
4.56859e-06
1.02514e-08
4.56667e-06
1.83168e-08
4.56256e-06
2.81452e-08
4.55566e-06
4.09495e-08
4.5449e-06
5.82618e-08
4.52914e-06
8.16865e-08
4.50677e-06
1.1566e-07
4.47629e-06
1.63499e-07
4.44061e-06
2.43866e-07
3.58392e-07
4.39662e-06
-2.56476e-07
4.90057e-07
-5.09066e-07
6.2085e-07
-7.38582e-07
7.1281e-07
-9.39347e-07
7.68607e-07
-1.10877e-06
7.91379e-07
-1.25086e-06
7.87459e-07
-1.37086e-06
7.64722e-07
-1.47542e-06
7.3027e-07
-1.56818e-06
6.89389e-07
-1.65471e-06
6.45823e-07
-1.73608e-06
6.01893e-07
-1.81595e-06
5.59047e-07
-1.89324e-06
5.18029e-07
-1.97025e-06
4.79116e-07
-2.0448e-06
4.42264e-07
-2.11848e-06
4.07255e-07
-2.1888e-06
3.73754e-07
-2.25693e-06
3.41402e-07
-2.32048e-06
3.09827e-07
-2.38035e-06
2.787e-07
-2.43441e-06
2.47725e-07
-2.48336e-06
2.16691e-07
-2.52538e-06
1.85433e-07
-2.56101e-06
1.53863e-07
-2.58883e-06
1.21957e-07
-2.60922e-06
8.975e-08
-2.62127e-06
5.73279e-08
-2.62521e-06
2.48075e-08
-2.62072e-06
-7.6066e-09
-2.60795e-06
-3.96708e-08
-2.58713e-06
-7.11538e-08
-2.55827e-06
-1.01816e-07
-2.52201e-06
-1.31418e-07
-2.4782e-06
-1.59765e-07
-2.42795e-06
-1.86669e-07
-2.37086e-06
-2.11963e-07
-2.30832e-06
-2.35549e-07
-2.23985e-06
-2.57344e-07
-2.16699e-06
-2.77325e-07
-2.08907e-06
-2.95477e-07
-2.00778e-06
-3.11813e-07
-1.92244e-06
-3.26326e-07
-1.83485e-06
-3.39124e-07
-1.7442e-06
-3.50282e-07
-1.6521e-06
-3.59891e-07
-1.55764e-06
-3.68052e-07
-1.46233e-06
-3.74891e-07
-1.36513e-06
-3.80523e-07
-1.26751e-06
-3.8512e-07
-1.16842e-06
-3.88779e-07
-1.06907e-06
-3.91648e-07
-9.68518e-07
-3.93868e-07
-8.67922e-07
-3.95605e-07
-7.66381e-07
-3.96975e-07
-6.64844e-07
-3.98104e-07
-5.62492e-07
-3.98991e-07
-4.60185e-07
-3.99817e-07
-3.56875e-07
-4.00849e-07
-2.52925e-07
-4.02149e-07
-1.48148e-07
-4.03409e-07
-4.37755e-08
-4.04502e-07
6.01063e-08
-4.05366e-07
1.62942e-07
-4.05923e-07
2.64987e-07
-4.06042e-07
3.65851e-07
-4.05713e-07
4.65649e-07
-4.04908e-07
5.64031e-07
-4.03654e-07
6.61177e-07
-4.01931e-07
7.56801e-07
-3.99757e-07
8.50885e-07
-3.971e-07
9.43088e-07
-3.93955e-07
1.03368e-06
-3.90158e-07
1.1228e-06
-3.85628e-07
1.21083e-06
-3.80287e-07
1.29787e-06
-3.7419e-07
1.38409e-06
-3.67363e-07
1.46938e-06
-3.59901e-07
1.55377e-06
-3.51827e-07
1.63711e-06
-3.43223e-07
1.71939e-06
-3.34184e-07
1.80042e-06
-3.24869e-07
1.88006e-06
-3.15413e-07
1.95803e-06
-3.06162e-07
2.03418e-06
-2.97273e-07
2.10822e-06
-2.89054e-07
2.18004e-06
-2.81796e-07
2.24956e-06
-2.75609e-07
2.31632e-06
-2.70352e-07
2.3796e-06
-2.65773e-07
2.44036e-06
-2.61549e-07
2.50043e-06
-2.575e-07
2.56037e-06
-2.5343e-07
2.61986e-06
-2.4924e-07
2.67855e-06
-2.44951e-07
2.73635e-06
-2.40556e-07
2.79317e-06
-2.36067e-07
2.84904e-06
-2.31585e-07
2.90394e-06
-2.27067e-07
2.95786e-06
-2.22496e-07
3.01096e-06
-2.17847e-07
3.06335e-06
-2.13076e-07
3.115e-06
-2.08272e-07
3.1658e-06
-2.03311e-07
3.21561e-06
-1.98357e-07
3.26429e-06
-1.93432e-07
3.31174e-06
-1.88669e-07
3.35795e-06
-1.83921e-07
3.40292e-06
-1.79372e-07
3.44676e-06
-1.74884e-07
3.48958e-06
-1.70487e-07
3.53141e-06
-1.6612e-07
3.57229e-06
-1.6192e-07
3.61228e-06
-1.57684e-07
3.65138e-06
-1.53592e-07
3.68959e-06
-1.49653e-07
3.72688e-06