/*--------------------------------*- C++ -*----------------------------------*\
| =========                 |                                                 |
| \\      /  F ield         | OpenFOAM: The Open Source CFD Toolbox           |
|  \\    /   O peration     | Version:  dev                                   |
|   \\  /    A nd           | Web:      www.OpenFOAM.org                      |
|    \\/     M anipulation  |                                                 |
\*---------------------------------------------------------------------------*/
FoamFile
{
    version     2.0;
    format      ascii;
    class       volVectorField;
    location    "20";
    object      U;
}
// * * * * * * * * * * * * * * * * * * * * * * * * * * * * * * * * * * * * * //

dimensions      [0 1 -1 0 0 0 0];

internalField   nonuniform List<vector> 
12225
(
(9.85924 -0.886642 0)
(9.66589 -0.741452 0)
(9.45494 -0.443421 0)
(9.21745 -0.238678 0)
(8.98913 -0.117413 0)
(8.7902 -0.0498712 0)
(8.61713 -0.0144932 0)
(8.46479 0.0031478 0)
(8.33111 0.0106799 0)
(8.21464 0.0119265 0)
(8.11397 0.0132323 0)
(8.02584 0.0177739 0)
(7.94457 0.0238546 0)
(7.86058 0.0324936 0)
(7.75849 0.0451519 0)
(7.62531 0.0632399 0)
(7.36556 0.107645 0)
(7.07618 0.103696 0)
(10.0531 0.227493 0)
(10.1198 0.329646 0)
(10.1194 0.264101 0)
(10.0829 0.191009 0)
(10.0349 0.142344 0)
(9.98627 0.110597 0)
(9.93045 0.0880949 0)
(9.86503 0.0716973 0)
(9.79343 0.060659 0)
(9.71855 0.0531235 0)
(9.64103 0.0472097 0)
(9.56011 0.0422986 0)
(9.4744 0.0401879 0)
(9.38625 0.0426586 0)
(9.29035 0.0541853 0)
(9.20007 0.079712 0)
(9.07418 0.15607 0)
(9.03215 0.260929 0)
(10.0041 0.0582992 0)
(10.0301 0.0551888 0)
(10.0551 0.0375859 0)
(10.0643 0.0373001 0)
(10.066 0.0464355 0)
(10.0658 0.0527217 0)
(10.0579 0.0543911 0)
(10.0402 0.0544087 0)
(10.0156 0.0551246 0)
(9.98644 0.0565814 0)
(9.9518 0.0592221 0)
(9.91082 0.0631963 0)
(9.86144 0.069173 0)
(9.8038 0.0795831 0)
(9.73602 0.0961017 0)
(9.66129 0.132262 0)
(9.57821 0.184973 0)
(9.51531 0.320508 0)
(9.99883 0.0112073 0)
(10.0111 0.0285776 0)
(10.0326 0.0382773 0)
(10.0444 0.0489337 0)
(10.053 0.0589727 0)
(10.0618 0.063683 0)
(10.0651 0.064166 0)
(10.061 0.0639397 0)
(10.0519 0.065207 0)
(10.0398 0.0679396 0)
(10.024 0.0722469 0)
(10.0035 0.0782535 0)
(9.97641 0.0870037 0)
(9.94249 0.100774 0)
(9.90109 0.12252 0)
(9.85416 0.159045 0)
(9.80682 0.218612 0)
(9.76107 0.302949 0)
(9.99979 0.00740029 0)
(10.0087 0.0324523 0)
(10.0245 0.044289 0)
(10.0337 0.0526732 0)
(10.0421 0.0598371 0)
(10.052 0.0635327 0)
(10.0576 0.0644848 0)
(10.0572 0.065258 0)
(10.0527 0.0675757 0)
(10.0459 0.071476 0)
(10.0368 0.0772025 0)
(10.0244 0.0850966 0)
(10.0075 0.0962529 0)
(9.98616 0.112827 0)
(9.96064 0.137272 0)
(9.93235 0.17418 0)
(9.90709 0.227679 0)
(9.88774 0.2961 0)
(10.0003 0.00953971 0)
(10.0078 0.0324948 0)
(10.0201 0.0434917 0)
(10.0273 0.0506703 0)
(10.0347 0.0568098 0)
(10.044 0.0608254 0)
(10.05 0.0630646 0)
(10.0506 0.0652266 0)
(10.0478 0.0687026 0)
(10.0431 0.0736909 0)
(10.0367 0.0806046 0)
(10.028 0.0899632 0)
(10.0163 0.102856 0)
(10.0019 0.121136 0)
(9.98564 0.146883 0)
(9.96902 0.182932 0)
(9.95783 0.23201 0)
(9.95527 0.292302 0)
(10.0003 0.0095343 0)
(10.0067 0.0291961 0)
(10.0169 0.040277 0)
(10.0231 0.0474437 0)
(10.0294 0.0536296 0)
(10.0379 0.0582791 0)
(10.0437 0.0616831 0)
(10.0448 0.0650888 0)
(10.0429 0.0695584 0)
(10.0394 0.0755369 0)
(10.0345 0.0834587 0)
(10.0281 0.093931 0)
(10.0197 0.107971 0)
(10.0099 0.127135 0)
(9.99983 0.153089 0)
(9.99122 0.18754 0)
(9.989 0.231951 0)
(9.99519 0.283705 0)
(10.0003 0.00872705 0)
(10.0055 0.0259102 0)
(10.0143 0.0371891 0)
(10.0199 0.044586 0)
(10.0253 0.0511646 0)
(10.0331 0.0563621 0)
(10.0385 0.0605928 0)
(10.04 0.0649155 0)
(10.0388 0.0702639 0)
(10.0363 0.0770966 0)
(10.0327 0.0858381 0)
(10.0281 0.0970588 0)
(10.0223 0.11178 0)
(10.0161 0.131217 0)
(10.0108 0.156593 0)
(10.0079 0.188789 0)
(10.0116 0.228235 0)
(10.0222 0.272137 0)
(10.0003 0.00797033 0)
(10.0045 0.0233081 0)
(10.0122 0.0344979 0)
(10.0172 0.042099 0)
(10.022 0.049102 0)
(10.0289 0.0548005 0)
(10.0341 0.0596094 0)
(10.036 0.0646108 0)
(10.0357 0.0707022 0)
(10.0341 0.07823 0)
(10.0318 0.0875705 0)
(10.0288 0.0992691 0)
(10.0254 0.114308 0)
(10.0223 0.133515 0)
(10.0208 0.157709 0)
(10.0223 0.187187 0)
(10.0299 0.221769 0)
(10.0429 0.259026 0)
(10.0005 0.00733677 0)
(10.0037 0.0210849 0)
(10.0104 0.0321274 0)
(10.0151 0.0396004 0)
(10.0193 0.0468069 0)
(10.0255 0.0530423 0)
(10.0304 0.0583739 0)
(10.0327 0.0639539 0)
(10.0333 0.0705995 0)
(10.0328 0.078674 0)
(10.0318 0.0884649 0)
(10.0305 0.100504 0)
(10.0293 0.115516 0)
(10.0289 0.134081 0)
(10.0305 0.156641 0)
(10.0353 0.183189 0)
(10.0457 0.213196 0)
(10.0601 0.244784 0)
(10.0007 0.00673373 0)
(10.0031 0.0192436 0)
(10.0088 0.0298907 0)
(10.0131 0.0371043 0)
(10.017 0.0443303 0)
(10.0227 0.0509893 0)
(10.0274 0.0567818 0)
(10.0303 0.0628145 0)
(10.0317 0.0698873 0)
(10.0323 0.0783492 0)
(10.0326 0.0884388 0)
(10.033 0.100501 0)
(10.0338 0.115136 0)
(10.0358 0.132607 0)
(10.04 0.153245 0)
(10.0474 0.176728 0)
(10.0597 0.202515 0)
(10.075 0.229128 0)
(10.0008 0.00612853 0)
(10.0028 0.0178189 0)
(10.0074 0.0279814 0)
(10.011 0.0357015 0)
(10.0151 0.0430499 0)
(10.0208 0.0494189 0)
(10.0257 0.0549714 0)
(10.0291 0.0610543 0)
(10.0313 0.068544 0)
(10.0327 0.0775382 0)
(10.0339 0.0879809 0)
(10.0355 0.100152 0)
(10.038 0.114185 0)
(10.0419 0.130505 0)
(10.0483 0.148998 0)
(10.0578 0.169577 0)
(10.0716 0.191563 0)
(10.0878 0.214127 0)
(10.001 0.00546091 0)
(10.0024 0.0165007 0)
(10.0069 0.0260014 0)
(10.0104 0.0339327 0)
(10.0139 0.0413992 0)
(10.0188 0.0476822 0)
(10.0235 0.0531844 0)
(10.0274 0.0593188 0)
(10.0306 0.0668682 0)
(10.0332 0.0758411 0)
(10.0357 0.0862277 0)
(10.0388 0.0980919 0)
(10.0427 0.111424 0)
(10.0482 0.126462 0)
(10.0559 0.14301 0)
(10.0666 0.160929 0)
(10.081 0.179672 0)
(10.0976 0.198479 0)
(10.0009 0.00469925 0)
(10.0019 0.0152255 0)
(10.0062 0.0234882 0)
(10.0101 0.0310616 0)
(10.0132 0.0388542 0)
(10.0173 0.045365 0)
(10.0217 0.0508861 0)
(10.0261 0.0568303 0)
(10.0304 0.0641323 0)
(10.0343 0.072766 0)
(10.0382 0.0829252 0)
(10.0427 0.09415 0)
(10.0481 0.106731 0)
(10.0549 0.120214 0)
(10.064 0.134771 0)
(10.0755 0.149832 0)
(10.0903 0.165142 0)
(10.1071 0.179989 0)
(10.0004 0.00406717 0)
(10.0013 0.0136495 0)
(10.0053 0.0212483 0)
(10.0098 0.0280832 0)
(10.013 0.0357871 0)
(10.0164 0.0427865 0)
(10.0205 0.0485842 0)
(10.0255 0.0543453 0)
(10.0308 0.0609522 0)
(10.0361 0.0688954 0)
(10.0415 0.0779691 0)
(10.0474 0.0882158 0)
(10.0541 0.0992252 0)
(10.062 0.111066 0)
(10.072 0.123226 0)
(10.084 0.135584 0)
(10.0989 0.147487 0)
(10.1157 0.158585 0)
(10.0002 0.00356311 0)
(10.0012 0.0117509 0)
(10.0046 0.0189617 0)
(10.0094 0.0248764 0)
(10.0134 0.0317358 0)
(10.0164 0.0388026 0)
(10.02 0.0450236 0)
(10.0252 0.0508314 0)
(10.0317 0.0569257 0)
(10.0383 0.0638814 0)
(10.0452 0.0716459 0)
(10.0524 0.0801885 0)
(10.0603 0.0891673 0)
(10.0692 0.0985966 0)
(10.0798 0.108103 0)
(10.0918 0.117394 0)
(10.1058 0.12594 0)
(10.1222 0.133297 0)
(10 0.00306154 0)
(10.0012 0.00955838 0)
(10.0039 0.0158441 0)
(10.0089 0.0208106 0)
(10.014 0.0263133 0)
(10.0175 0.0324768 0)
(10.0208 0.0386105 0)
(10.026 0.0443729 0)
(10.0331 0.0502467 0)
(10.0409 0.0562754 0)
(10.0488 0.0627917 0)
(10.0569 0.0694038 0)
(10.0656 0.0762505 0)
(10.0751 0.0828919 0)
(10.0856 0.0894048 0)
(10.0972 0.095332 0)
(10.1099 0.100533 0)
(10.1254 0.104774 0)
(9.99999 0.00250946 0)
(10.0012 0.0071564 0)
(10.0035 0.0122978 0)
(10.0082 0.01674 0)
(10.0142 0.020988 0)
(10.0188 0.0256204 0)
(10.0224 0.0305331 0)
(10.0279 0.0354175 0)
(10.0352 0.040285 0)
(10.0435 0.0451556 0)
(10.052 0.0500252 0)
(10.0606 0.0548406 0)
(10.0694 0.0594944 0)
(10.0787 0.0638497 0)
(10.0888 0.0677415 0)
(10.0995 0.071034 0)
(10.1108 0.0734931 0)
(10.125 0.0753947 0)
(10.0003 0.00153523 0)
(10.0015 0.00427473 0)
(10.0041 0.00744782 0)
(10.0085 0.0106732 0)
(10.0146 0.0135936 0)
(10.0198 0.0164505 0)
(10.024 0.0196576 0)
(10.0296 0.0229954 0)
(10.0372 0.0265382 0)
(10.0456 0.029995 0)
(10.0542 0.0334361 0)
(10.0628 0.036583 0)
(10.0715 0.0394837 0)
(10.0802 0.0419974 0)
(10.0895 0.0440144 0)
(10.0989 0.0453431 0)
(10.1086 0.0458772 0)
(10.1208 0.0459436 0)
(10.0003 0.000365747 0)
(10.0015 0.00131247 0)
(10.0045 0.00222246 0)
(10.0093 0.00389154 0)
(10.0153 0.00555634 0)
(10.0208 0.0071681 0)
(10.0257 0.00901132 0)
(10.0321 0.0114485 0)
(10.0402 0.0139806 0)
(10.0488 0.0166638 0)
(10.0573 0.0190218 0)
(10.0655 0.0211463 0)
(10.0735 0.0227966 0)
(10.0814 0.0240148 0)
(10.0894 0.0246347 0)
(10.0974 0.0246533 0)
(10.1052 0.0239699 0)
(10.1157 0.0232045 0)
(10.0003 -0.000541259 0)
(10.0016 -0.00136713 0)
(10.0053 -0.00211178 0)
(10.0109 -0.00151673 0)
(10.017 -0.000824975 0)
(10.0225 -0.000268066 0)
(10.0281 0.000655944 0)
(10.0352 0.00233308 0)
(10.0435 0.00418984 0)
(10.052 0.00612466 0)
(10.0601 0.00767779 0)
(10.0678 0.00900932 0)
(10.0751 0.00983914 0)
(10.0823 0.0103156 0)
(10.0895 0.0102718 0)
(10.0966 0.00977799 0)
(10.1036 0.0087388 0)
(10.1129 0.00799165 0)
(10.0004 -0.00135431 0)
(10.0018 -0.00404281 0)
(10.0063 -0.00638037 0)
(10.0126 -0.00694419 0)
(10.0185 -0.00741313 0)
(10.0244 -0.00800762 0)
(10.0308 -0.00771588 0)
(10.0386 -0.0066356 0)
(10.0472 -0.00510728 0)
(10.0556 -0.00377045 0)
(10.0633 -0.00259095 0)
(10.0706 -0.0017816 0)
(10.0775 -0.0012046 0)
(10.0843 -0.00101545 0)
(10.091 -0.00116072 0)
(10.0978 -0.00175349 0)
(10.1042 -0.00276357 0)
(10.1127 -0.00347872 0)
(10.0004 -0.00214769 0)
(10.0019 -0.00669551 0)
(10.0074 -0.0106238 0)
(10.0143 -0.0120703 0)
(10.0202 -0.0134586 0)
(10.0266 -0.0147115 0)
(10.0341 -0.0148364 0)
(10.0427 -0.0139516 0)
(10.0514 -0.0128035 0)
(10.0596 -0.0117663 0)
(10.0671 -0.0109658 0)
(10.074 -0.0104299 0)
(10.0807 -0.0101048 0)
(10.0871 -0.0100708 0)
(10.0934 -0.0103147 0)
(10.0997 -0.0108961 0)
(10.1057 -0.0119156 0)
(10.1132 -0.0126154 0)
(10.0004 -0.00283421 0)
(10.0021 -0.00977314 0)
(10.0087 -0.015133 0)
(10.0162 -0.0171327 0)
(10.0221 -0.0190215 0)
(10.0291 -0.0205736 0)
(10.0377 -0.0208324 0)
(10.047 -0.0201799 0)
(10.0558 -0.0193429 0)
(10.0638 -0.0186341 0)
(10.071 -0.0181537 0)
(10.0777 -0.0178128 0)
(10.0841 -0.0176598 0)
(10.0903 -0.0176942 0)
(10.0964 -0.0179557 0)
(10.1024 -0.0184442 0)
(10.1081 -0.01932 0)
(10.1148 -0.0200083 0)
(10.0001 -0.00271833 0)
(10.0018 -0.0135641 0)
(10.0099 -0.0206712 0)
(10.0181 -0.0231956 0)
(10.024 -0.0253857 0)
(10.0318 -0.0268938 0)
(10.0415 -0.0269985 0)
(10.0514 -0.0262772 0)
(10.0604 -0.0254938 0)
(10.0683 -0.0248953 0)
(10.0753 -0.0244217 0)
(10.0818 -0.0240637 0)
(10.088 -0.0238432 0)
(10.094 -0.0238073 0)
(10.0998 -0.0239532 0)
(10.1054 -0.024299 0)
(10.1106 -0.0249452 0)
(10.1162 -0.025621 0)
(9.99892 0.000234251 0)
(9.99938 -0.0145161 0)
(10.0098 -0.0243142 0)
(10.0195 -0.0286446 0)
(10.0264 -0.0319237 0)
(10.0356 -0.033799 0)
(10.0467 -0.0337614 0)
(10.0573 -0.0327732 0)
(10.0662 -0.0317426 0)
(10.0738 -0.0308682 0)
(10.0805 -0.0301279 0)
(10.0866 -0.0295013 0)
(10.0923 -0.0290832 0)
(10.0976 -0.028827 0)
(10.1026 -0.0287296 0)
(10.1072 -0.0287526 0)
(10.111 -0.0290426 0)
(10.1144 -0.0294121 0)
(9.99585 0.00173687 0)
(9.99397 -0.00824506 0)
(10.0088 -0.018631 0)
(10.0222 -0.0274072 0)
(10.0316 -0.034913 0)
(10.0431 -0.0393401 0)
(10.0553 -0.0403511 0)
(10.0659 -0.0396875 0)
(10.074 -0.0385715 0)
(10.0802 -0.0373904 0)
(10.0853 -0.0363433 0)
(10.0896 -0.0353587 0)
(10.093 -0.0344125 0)
(10.0957 -0.033567 0)
(10.0976 -0.0327451 0)
(10.0984 -0.0318941 0)
(10.0978 -0.0312767 0)
(10.0961 -0.0306185 0)
(9.99521 -0.0307768 0)
(10 -0.0212374 0)
(10.0184 -0.00485881 0)
(10.0338 -0.00342208 0)
(10.0446 -0.0113273 0)
(10.0561 -0.0194897 0)
(10.0665 -0.024593 0)
(10.0731 -0.0274918 0)
(10.0759 -0.0291369 0)
(10.0759 -0.0300864 0)
(10.0741 -0.0308515 0)
(10.0709 -0.0315933 0)
(10.0661 -0.0322759 0)
(10.0594 -0.0328882 0)
(10.0508 -0.0331234 0)
(10.0402 -0.0328005 0)
(10.0276 -0.0321465 0)
(10.0142 -0.031076 0)
(10.0252 -0.182443 0)
(10.0753 -0.289641 0)
(10.0885 -0.247749 0)
(10.0818 -0.188259 0)
(10.0688 -0.144339 0)
(10.0574 -0.113659 0)
(10.0438 -0.090697 0)
(10.0252 -0.0733246 0)
(10.0023 -0.0605886 0)
(9.97674 -0.0511404 0)
(9.95001 -0.0436512 0)
(9.92165 -0.0361908 0)
(9.89099 -0.0278813 0)
(9.85808 -0.0193864 0)
(9.82416 -0.0111272 0)
(9.78991 -0.00358624 0)
(9.75595 0.00281773 0)
(9.72326 0.0080165 0)
(9.93862 0.689706 0)
(9.86896 0.609775 0)
(9.76911 0.393046 0)
(9.633 0.233242 0)
(9.49172 0.131864 0)
(9.36561 0.0712363 0)
(9.25618 0.0358567 0)
(9.15979 0.0160931 0)
(9.0751 0.00723516 0)
(9.00153 0.00531921 0)
(8.93883 0.00644811 0)
(8.88857 0.00649419 0)
(8.85003 0.0028851 0)
(8.82269 -0.00224722 0)
(8.80498 -0.00857384 0)
(8.79541 -0.0155324 0)
(8.79067 -0.0211518 0)
(8.79268 -0.0285624 0)
(0.0607018 -0.17701 1.78407e-19)
(0.0896676 -0.158331 1.90506e-20)
(0.0833729 -0.0944766 0)
(0.0347877 -0.00937681 0)
(-0.0254496 0.101845 0)
(-0.151893 0.166205 -1.54704e-20)
(-0.353557 0.208427 0)
(-0.545559 0.250707 0)
(-0.762988 0.274175 0)
(-0.987524 0.28289 0)
(-1.21199 0.280207 9.84557e-21)
(-1.43098 0.269446 0)
(-1.63991 0.253455 0)
(-1.8368 0.234293 0)
(-2.0195 0.213813 0)
(-2.18771 0.192988 1.5144e-20)
(-2.34069 0.172781 0)
(-2.47917 0.15336 0)
(-2.6034 0.135203 0)
(-2.71425 0.118132 0)
(-2.81202 0.102328 0)
(-2.89756 0.0874426 0)
(-2.9712 0.0736237 0)
(-3.03343 0.0604615 2.44705e-20)
(-3.08451 0.0481452 -2.54173e-20)
(-3.12465 0.0363595 2.62789e-20)
(-3.1541 0.0253851 2.70361e-20)
(-3.17328 0.0150184 0)
(-3.18235 0.00594774 0)
(-3.18348 -0.00184021 -2.83897e-20)
(-3.17723 -0.00871462 -2.85169e-20)
(-3.16361 -0.0152185 0)
(-3.14341 -0.02182 0)
(-3.11654 -0.0279979 -2.80756e-20)
(-3.08378 -0.0337064 0)
(-3.04492 -0.0391794 0)
(-3.00068 -0.0446216 2.61789e-20)
(-2.95092 -0.0493168 0)
(-2.89657 -0.0534271 2.40553e-20)
(-2.83751 -0.0573327 4.54695e-20)
(-2.7745 -0.0602603 0)
(-2.70799 -0.0640617 0)
(-2.63763 -0.0669292 0)
(-2.5651 -0.0692139 0)
(-2.48925 -0.0724256 0)
(-2.4118 -0.0732219 2.19545e-20)
(-2.33206 -0.0745012 1.6656e-20)
(-2.25129 -0.075216 1.09324e-20)
(-2.16869 -0.0764863 0)
(-2.08531 -0.0770083 1.86909e-21)
(-1.9999 -0.077878 0)
(-1.9143 -0.0780832 -1.6733e-20)
(-1.82674 -0.0792624 -2.49156e-20)
(-1.73969 -0.0799976 0)
(-1.65115 -0.081341 0)
(-1.56374 -0.0815274 0)
(-1.47478 -0.0832461 -6.4932e-20)
(-1.38698 -0.0849541 0)
(-1.29745 -0.0871582 0)
(-1.21027 -0.0880116 0)
(-1.12081 -0.0905155 0)
(-1.03426 -0.0923513 0)
(-0.945418 -0.0948803 0)
(-0.860604 -0.0950031 0)
(-0.774207 -0.0961345 0)
(-0.695007 -0.0967605 2.38094e-19)
(-0.606436 -0.100219 0)
(-0.522628 -0.100366 0)
(-0.435465 -0.104421 -3.91777e-19)
(-0.355943 -0.109071 -4.71818e-19)
(-0.254327 -0.115793 0)
(-0.146833 -0.114679 4.11702e-19)
(-0.0392816 -0.110957 -3.65543e-19)
(0.0639364 -0.103869 0)
(0.16802 -0.098046 3.0571e-19)
(0.26723 -0.0910845 0)
(0.364936 -0.0859458 0)
(0.457647 -0.0804885 -2.51646e-19)
(0.546579 -0.0769137 0)
(0.629738 -0.0728234 2.30829e-19)
(0.709109 -0.069749 0)
(0.783574 -0.0661076 -2.19126e-19)
(0.854636 -0.0638235 -2.14864e-19)
(0.921677 -0.0603747 -2.12516e-19)
(0.987279 -0.0573035 -4.18781e-19)
(1.05102 -0.0547496 4.137e-19)
(1.11435 -0.0531889 0)
(1.17573 -0.0512039 0)
(1.23559 -0.0500166 0)
(1.29173 -0.0496058 3.90305e-19)
(1.34715 -0.0486125 3.85981e-19)
(1.40551 -0.0472585 -3.8045e-19)
(1.46648 -0.0450153 0)
(1.52838 -0.0421306 3.66585e-19)
(1.58954 -0.0411314 3.59472e-19)
(1.65016 -0.040607 3.53068e-19)
(1.70955 -0.0387812 0)
(1.76793 -0.0372784 0)
(1.82483 -0.0369983 0)
(1.88083 -0.0353813 3.30472e-19)
(1.93566 -0.0325891 0)
(1.9891 -0.0299061 0)
(2.04122 -0.0286744 -3.14851e-19)
(2.09204 -0.0277254 0)
(2.1421 -0.0258112 0)
(2.19031 -0.0250093 -3.01375e-19)
(2.23714 -0.0251176 0)
(2.28239 -0.0238033 0)
(2.32567 -0.0217036 2.90967e-19)
(2.36778 -0.0210424 2.86945e-19)
(2.4089 -0.0206238 0)
(2.44882 -0.0188784 -2.80576e-19)
(2.48713 -0.0173011 0)
(2.52451 -0.0164504 2.74763e-19)
(2.56096 -0.0165533 0)
(2.59589 -0.0159537 2.70276e-19)
(2.62977 -0.0157237 2.68279e-19)
(2.66222 -0.0158872 0)
(2.69434 -0.0158653 0)
(2.72574 -0.0148426 0)
(2.75608 -0.0121651 0)
(2.78567 -0.00990963 0)
(2.81509 -0.0100008 0)
(2.84414 -0.0105393 0)
(2.87279 -0.00991034 2.52355e-19)
(2.90034 -0.00971038 -2.50666e-19)
(2.92721 -0.0100707 0)
(2.95294 -0.009988 0)
(2.97857 -0.00982151 0)
(3.00343 -0.00924718 0)
(3.02777 -0.0080315 -4.8789e-19)
(3.0511 -0.00810007 0)
(3.07356 -0.00925853 4.83619e-19)
(3.09541 -0.00919456 -4.82273e-19)
(3.11713 -0.00881791 0)
(3.13815 -0.00687338 0)
(3.15842 -0.00419044 0)
(3.17824 -0.00441855 4.72451e-19)
(3.19787 -0.00482603 4.7066e-19)
(3.21693 -0.00538798 0)
(3.23511 -0.00648436 4.68159e-19)
(3.25269 -0.0054199 4.66746e-19)
(3.26976 -0.00508717 -4.65187e-19)
(3.28675 -0.0044082 0)
(3.30323 -0.0038859 0)
(3.3201 -0.00525014 -4.59862e-19)
(3.33705 -0.00521602 0)
(3.35351 -0.00518273 0)
(3.3685 -0.00441454 0)
(3.38386 -0.00384566 0)
(3.39893 -0.00393176 4.53908e-19)
(3.41333 -0.003795 4.52668e-19)
(3.42738 -0.00417343 0)
(3.44158 -0.00380007 4.50298e-19)
(3.45561 -0.00319875 0)
(3.46872 -0.00272071 0)
(3.48161 -0.00297746 4.46294e-19)
(3.49414 -0.00309431 0)
(3.50668 -0.00252431 4.44231e-19)
(3.5191 -0.00310965 0)
(3.53048 -0.00444065 0)
(3.54191 -0.00402852 4.41272e-19)
(3.55332 -0.00353812 0)
(3.5644 -0.00401678 4.39713e-19)
(3.57419 -0.00314873 0)
(3.5824 -0.0017417 0)
(3.58828 -0.00109885 0)
(3.5925 -0.00113898 -4.39139e-19)
(3.59557 -4.54121e-05 0)
(3.5965 0.0023592 4.39087e-19)
(3.5944 0.00299585 0)
(3.58895 0.00321621 0)
(3.57888 0.00591676 0)
(3.56199 0.00908671 0)
(3.53739 0.0117915 0)
(3.50099 0.0159651 0)
(3.45032 0.0209923 0)
(3.37006 0.0285837 -9.48418e-19)
(3.26862 0.0478149 0)
(3.01476 0.0665152 0)
(-0.0467504 -0.0957599 -3.27558e-19)
(-0.124349 0.0481065 -1.02671e-19)
(-0.250305 0.214323 0)
(-0.43908 0.364688 3.31102e-20)
(-0.652168 0.49824 0)
(-0.890786 0.597179 1.11644e-20)
(-1.12478 0.649374 -1.72586e-20)
(-1.3472 0.671377 -1.5612e-20)
(-1.5518 0.668757 0)
(-1.73505 0.647865 -1.54917e-20)
(-1.89683 0.614816 -7.14547e-21)
(-2.03829 0.573962 0)
(-2.1609 0.529016 0)
(-2.26714 0.482515 0)
(-2.35912 0.436564 0)
(-2.43905 0.392222 -1.13969e-20)
(-2.50866 0.350393 0)
(-2.56947 0.311147 2.83696e-20)
(-2.62265 0.274717 0)
(-2.66915 0.240714 0)
(-2.70962 0.209106 -3.35473e-20)
(-2.74446 0.179383 0)
(-2.77412 0.151524 3.66105e-20)
(-2.79888 0.125039 -1.86834e-20)
(-2.81898 0.100039 1.93348e-20)
(-2.83439 0.0761929 -1.99079e-20)
(-2.84526 0.0536789 -2.03891e-20)
(-2.85126 0.0322456 0)
(-2.85294 0.01218 0)
(-2.84813 -0.00680027 2.10687e-20)
(-2.83673 -0.0247455 -2.15372e-20)
(-2.81849 -0.0418965 0)
(-2.79366 -0.0581423 0)
(-2.76238 -0.073537 2.04151e-20)
(-2.72498 -0.0879606 0)
(-2.68161 -0.101298 0)
(-2.63271 -0.113591 -1.88524e-20)
(-2.57864 -0.124737 0)
(-2.51972 -0.134882 1.80414e-20)
(-2.45627 -0.143723 -3.26942e-20)
(-2.38872 -0.151749 0)
(-2.3174 -0.158617 0)
(-2.24305 -0.164924 -5.33928e-20)
(-2.16597 -0.170092 -4.82123e-20)
(-2.08654 -0.174348 -4.26832e-20)
(-2.00522 -0.177331 1.91781e-20)
(-1.92195 -0.179791 -1.45118e-20)
(-1.83708 -0.181113 -3.51208e-20)
(-1.75082 -0.182224 1.69412e-20)
(-1.66355 -0.182332 4.04972e-21)
(-1.57495 -0.182423 0)
(-1.48522 -0.181558 3.86416e-21)
(-1.39452 -0.181021 -6.53074e-21)
(-1.3035 -0.179918 0)
(-1.21189 -0.17936 0)
(-1.11985 -0.178022 0)
(-1.02711 -0.177327 2.70485e-20)
(-0.934188 -0.176068 0)
(-0.840729 -0.17568 -7.33709e-20)
(-0.747058 -0.174476 0)
(-0.652641 -0.173887 -9.69753e-20)
(-0.558353 -0.173108 0)
(-0.463693 -0.173887 1.23673e-19)
(-0.368563 -0.173661 0)
(-0.269107 -0.174698 -1.45402e-19)
(-0.166629 -0.176255 7.24552e-20)
(-0.0636535 -0.180331 0)
(0.0389555 -0.183581 1.53755e-19)
(0.14037 -0.187287 7.99507e-20)
(0.238722 -0.189864 8.15103e-20)
(0.332316 -0.191698 0)
(0.420817 -0.189854 8.21438e-20)
(0.507024 -0.186154 8.5865e-20)
(0.592401 -0.179993 0)
(0.67772 -0.173586 -8.8037e-20)
(0.762657 -0.165696 1.75629e-19)
(0.84727 -0.157961 0)
(0.930603 -0.1495 8.81674e-20)
(1.01219 -0.142206 0)
(1.09177 -0.134902 -2.60707e-19)
(1.16953 -0.12888 0)
(1.24531 -0.12303 2.62879e-19)
(1.31882 -0.118506 8.92934e-20)
(1.39006 -0.113975 -8.98438e-20)
(1.45982 -0.110526 -1.84185e-19)
(1.52797 -0.107365 1.89282e-19)
(1.5948 -0.105396 0)
(1.65986 -0.103361 0)
(1.72257 -0.101617 0)
(1.78206 -0.100011 -6.33309e-19)
(1.84052 -0.0981978 -2.16004e-19)
(1.90013 -0.0961187 2.18674e-19)
(1.96115 -0.093964 0)
(2.02243 -0.0916172 2.1853e-19)
(2.08307 -0.0888728 -2.20756e-19)
(2.14297 -0.0862507 -2.19995e-19)
(2.20213 -0.0837069 0)
(2.26028 -0.0812658 0)
(2.31745 -0.0787853 0)
(2.3737 -0.07632 -2.16643e-19)
(2.42909 -0.0741316 0)
(2.48364 -0.0719793 4.27101e-19)
(2.53734 -0.0697333 6.38845e-19)
(2.59048 -0.0672534 -4.237e-19)
(2.64244 -0.0648505 0)
(2.69306 -0.0623781 -2.08273e-19)
(2.74221 -0.0601501 0)
(2.79032 -0.0583775 -4.13029e-19)
(2.83742 -0.0565104 2.05294e-19)
(2.8831 -0.0543613 2.03482e-19)
(2.92772 -0.0525811 0)
(2.97109 -0.050965 6.03324e-19)
(3.01344 -0.0493552 -4.00346e-19)
(3.05495 -0.047505 -1.99386e-19)
(3.09566 -0.0458468 0)
(3.13533 -0.0442041 -1.97587e-19)
(3.17433 -0.0426972 -5.90311e-19)
(3.21276 -0.0409949 0)
(3.25013 -0.0393965 -3.89647e-19)
(3.28669 -0.0383452 -3.86904e-19)
(3.32238 -0.037756 -3.84981e-19)
(3.35769 -0.036977 0)
(3.39228 -0.0358255 0)
(3.42618 -0.0346318 0)
(3.45927 -0.0335945 1.88666e-19)
(3.49165 -0.0325056 1.88335e-19)
(3.52337 -0.031406 0)
(3.55414 -0.030104 3.73803e-19)
(3.58413 -0.0290643 3.71989e-19)
(3.61403 -0.0282191 0)
(3.64357 -0.0273261 3.6933e-19)
(3.67191 -0.0261263 7.35798e-19)
(3.69958 -0.024915 -3.67501e-19)
(3.72698 -0.0239302 -3.66377e-19)
(3.75376 -0.023395 0)
(3.78038 -0.0232697 0)
(3.80592 -0.0230242 0)
(3.83038 -0.0222872 -3.61033e-19)
(3.85433 -0.0216318 3.59467e-19)
(3.87775 -0.0210231 7.17722e-19)
(3.90087 -0.020363 -3.58879e-19)
(3.92377 -0.0200066 3.5773e-19)
(3.94653 -0.0194598 3.57394e-19)
(3.96871 -0.018676 0)
(3.98941 -0.0178465 0)
(4.01018 -0.0170712 -3.53321e-19)
(4.0314 -0.016529 0)
(4.05152 -0.0159632 0)
(4.07105 -0.0155054 7.02309e-19)
(4.09022 -0.0152683 0)
(4.10992 -0.0150397 3.49956e-19)
(4.12827 -0.0144115 -3.49428e-19)
(4.14586 -0.0138604 0)
(4.16374 -0.0138057 3.47591e-19)
(4.18166 -0.0136433 0)
(4.19876 -0.0131752 0)
(4.21515 -0.0125684 -3.44769e-19)
(4.23094 -0.0120133 6.88847e-19)
(4.24695 -0.0117241 -3.43321e-19)
(4.2628 -0.0112662 0)
(4.278 -0.0105327 0)
(4.29225 -0.0100167 3.40514e-19)
(4.3057 -0.00954024 0)
(4.31875 -0.00885139 3.39645e-19)
(4.33151 -0.00825219 0)
(4.34429 -0.00736922 0)
(4.35658 -0.00618721 0)
(4.36829 -0.00480376 3.38478e-19)
(4.37955 -0.0037464 0)
(4.38956 -0.0026013 -3.36781e-19)
(4.39758 -0.000483628 0)
(4.40462 0.00217065 0)
(4.41018 0.00509023 6.72617e-19)
(4.41234 0.00914638 -6.74281e-19)
(4.41113 0.0150545 0)
(4.40441 0.0228386 0)
(4.39225 0.034217 0)
(4.36866 0.0512203 2.04432e-18)
(4.34418 0.0832523 0)
(4.26051 0.122872 -1.37866e-18)
(-0.132428 0.231183 -7.76684e-21)
(-0.303187 0.46998 6.34889e-20)
(-0.510888 0.682363 0)
(-0.736087 0.845759 -3.74334e-20)
(-0.945078 0.958952 0)
(-1.13368 1.01708 0)
(-1.29934 1.02837 -1.42793e-21)
(-1.44224 1.00743 1.1434e-20)
(-1.56384 0.963131 1.38696e-20)
(-1.6687 0.9036 1.1809e-20)
(-1.76049 0.835868 0)
(-1.84253 0.765123 0)
(-1.91744 0.695043 -1.7399e-20)
(-1.98733 0.627889 -3.70414e-20)
(-2.05341 0.564929 3.93489e-20)
(-2.11643 0.506581 0)
(-2.17662 0.452823 4.41276e-20)
(-2.23395 0.403254 -2.21447e-20)
(-2.28821 0.35738 0)
(-2.33909 0.314601 5.13718e-20)
(-2.38617 0.27442 2.6108e-20)
(-2.42897 0.236313 -5.59828e-20)
(-2.46708 0.19991 -2.84357e-20)
(-2.5 0.164843 0)
(-2.52731 0.130917 6.19885e-20)
(-2.54855 0.097907 6.36222e-20)
(-2.56336 0.0657463 0)
(-2.57138 0.0343417 6.59632e-20)
(-2.57253 0.00369832 0)
(-2.56658 -0.0261546 6.6648e-20)
(-2.55365 -0.0549904 3.25194e-20)
(-2.53376 -0.0826627 0)
(-2.50717 -0.109015 0)
(-2.47406 -0.133907 0)
(-2.43477 -0.157215 0)
(-2.38953 -0.178816 0)
(-2.33876 -0.198666 0)
(-2.28283 -0.216651 5.66508e-20)
(-2.22212 -0.232831 -8.02701e-20)
(-2.15704 -0.247102 0)
(-2.0879 -0.259556 0)
(-2.01506 -0.270363 0)
(-1.93929 -0.279753 -1.27404e-21)
(-1.86088 -0.287603 3.53037e-20)
(-1.78015 -0.293979 6.34185e-20)
(-1.69748 -0.298833 -5.45191e-20)
(-1.61307 -0.302511 -2.31175e-20)
(-1.52717 -0.304952 1.7207e-20)
(-1.43997 -0.306533 9.36406e-22)
(-1.35171 -0.307103 7.74228e-21)
(-1.26238 -0.307041 0)
(-1.17209 -0.306252 -3.47336e-21)
(-1.08094 -0.305272 9.3619e-22)
(-0.989262 -0.303909 0)
(-0.897044 -0.302526 0)
(-0.804282 -0.300855 2.7916e-20)
(-0.710904 -0.299444 0)
(-0.617073 -0.297873 0)
(-0.522747 -0.29653 -4.63878e-20)
(-0.428012 -0.295198 -1.10287e-19)
(-0.332237 -0.294579 6.38366e-20)
(-0.234823 -0.294117 0)
(-0.136567 -0.294108 -7.36073e-20)
(-0.0387218 -0.293661 0)
(0.0585496 -0.293086 -7.76099e-20)
(0.155001 -0.291647 -8.50061e-20)
(0.25055 -0.290037 1.72894e-19)
(0.344989 -0.287754 8.77291e-20)
(0.438164 -0.285617 0)
(0.529632 -0.283333 -1.91607e-19)
(0.618896 -0.281326 0)
(0.705834 -0.278115 -3.06392e-19)
(0.791082 -0.273794 -2.08844e-19)
(0.875182 -0.267929 -2.14254e-19)
(0.958532 -0.261287 2.19367e-19)
(1.04126 -0.253547 -3.37132e-19)
(1.12342 -0.245301 0)
(1.20468 -0.236207 0)
(1.28497 -0.226879 2.3345e-19)
(1.36419 -0.217156 3.52644e-19)
(1.44225 -0.20785 0)
(1.51882 -0.199126 -1.17968e-19)
(1.59356 -0.191728 0)
(1.6666 -0.185181 3.58142e-19)
(1.73814 -0.17996 1.58436e-21)
(1.80788 -0.175649 -1.83604e-21)
(1.87591 -0.172359 -2.56025e-19)
(1.942 -0.169467 0)
(2.00538 -0.166755 2.75399e-19)
(2.06577 -0.164073 2.2859e-21)
(2.12472 -0.16115 0)
(2.18394 -0.157931 0)
(2.24367 -0.154418 0)
(2.30327 -0.150786 -3.21327e-19)
(2.36221 -0.147064 0)
(2.42041 -0.143238 0)
(2.47787 -0.139424 0)
(2.53439 -0.135684 0)
(2.59014 -0.132046 0)
(2.6451 -0.128261 -3.32939e-19)
(2.69937 -0.124414 0)
(2.75287 -0.120681 -3.33647e-19)
(2.80582 -0.116962 -3.33697e-19)
(2.8581 -0.113341 3.33244e-19)
(2.90947 -0.109733 0)
(2.95976 -0.106262 3.31535e-19)
(3.00869 -0.102864 0)
(3.0566 -0.0996409 3.29431e-19)
(3.10354 -0.0966274 -3.28634e-19)
(3.14934 -0.093652 -9.80635e-19)
(3.19419 -0.0907389 0)
(3.23806 -0.0878839 -9.73052e-19)
(3.28099 -0.0850818 -3.22897e-19)
(3.32335 -0.0823471 0)
(3.36497 -0.0798144 -6.43089e-19)
(3.4057 -0.0773511 -6.41871e-19)
(3.44558 -0.075006 9.60309e-19)
(3.48479 -0.0729242 0)
(3.5232 -0.0707827 3.18618e-19)
(3.56075 -0.0686537 3.17124e-19)
(3.59768 -0.0665441 9.46835e-19)
(3.63425 -0.0644348 0)
(3.6704 -0.0624998 0)
(3.7058 -0.0606194 0)
(3.74025 -0.0588503 3.11602e-19)
(3.77408 -0.0572323 0)
(3.80715 -0.0557222 0)
(3.83946 -0.0541614 -3.10075e-19)
(3.87117 -0.0524017 -3.08931e-19)
(3.90264 -0.0506961 0)
(3.93352 -0.049249 0)
(3.96368 -0.0480164 -6.15253e-19)
(3.99305 -0.046642 0)
(4.02206 -0.0451963 6.13262e-19)
(4.0506 -0.0437639 6.12713e-19)
(4.07878 -0.0423815 0)
(4.10624 -0.0411552 0)
(4.13292 -0.0400421 -6.08284e-19)
(4.15908 -0.0389616 -4.19009e-22)
(4.18471 -0.0380008 -4.13766e-22)
(4.20984 -0.0370374 0)
(4.23465 -0.0358836 -1.20669e-18)
(4.25936 -0.0349026 0)
(4.28337 -0.0340778 0)
(4.30659 -0.0331003 0)
(4.32952 -0.0319007 6.00415e-19)
(4.35268 -0.0309957 0)
(4.37495 -0.0302929 -1.1938e-18)
(4.39659 -0.0293247 -5.96327e-19)
(4.41828 -0.0283131 0)
(4.44001 -0.0277299 -5.97051e-19)
(4.46084 -0.0272338 0)
(4.48073 -0.0263155 0)
(4.50094 -0.0252902 -1.78229e-18)
(4.52107 -0.0246197 1.18466e-18)
(4.54029 -0.023979 0)
(4.55878 -0.0232883 1.17922e-18)
(4.57687 -0.0225116 -5.90382e-19)
(4.59498 -0.021511 0)
(4.61299 -0.0209922 0)
(4.62988 -0.0204579 0)
(4.64591 -0.0195792 -1.75398e-18)
(4.66183 -0.0186008 0)
(4.67694 -0.01755 -5.8466e-19)
(4.69178 -0.0163648 0)
(4.7062 -0.0150755 0)
(4.72006 -0.0138551 0)
(4.73293 -0.0121545 0)
(4.74554 -0.0103028 0)
(4.75699 -0.00825938 0)
(4.76667 -0.00554115 -1.15655e-18)
(4.77481 -0.00189192 0)
(4.78104 0.00232914 -5.78506e-19)
(4.78462 0.00766058 1.74002e-18)
(4.78494 0.0149922 0)
(4.78025 0.0249056 0)
(4.77039 0.0396213 -1.16769e-18)
(4.75201 0.0604466 -1.17479e-18)
(4.7308 0.097009 1.17282e-18)
(4.68602 0.149672 1.18167e-18)
(-0.170027 0.681945 7.1294e-20)
(-0.347751 0.941982 -5.79986e-20)
(-0.554984 1.13292 -3.02242e-20)
(-0.750449 1.25621 -1.36211e-20)
(-0.915693 1.31605 0)
(-1.05361 1.32188 2.59865e-20)
(-1.16934 1.28769 -1.49193e-20)
(-1.26845 1.22761 0)
(-1.35557 1.1526 -1.1578e-20)
(-1.43507 1.07089 0)
(-1.50987 0.987816 2.97648e-20)
(-1.58203 0.906822 0)
(-1.6526 0.82983 1.45245e-20)
(-1.72212 0.757663 3.09604e-20)
(-1.79056 0.690416 -3.29456e-20)
(-1.85767 0.627768 0)
(-1.92298 0.56915 -3.71199e-20)
(-1.98592 0.513918 0)
(-2.04587 0.461396 0)
(-2.10223 0.410983 -4.35755e-20)
(-2.15439 0.362152 0)
(-2.20171 0.314489 -1.80825e-21)
(-2.24367 0.267672 0)
(-2.27971 0.221496 0)
(-2.30939 0.175857 1.86737e-21)
(-2.33228 0.130727 -5.47393e-20)
(-2.34802 0.0861655 -5.80191e-20)
(-2.35643 0.0422606 -5.68489e-20)
(-2.3574 -0.000795027 0)
(-2.35085 -0.0427556 -1.16971e-19)
(-2.33694 -0.0833485 0)
(-2.31577 -0.122313 -5.9002e-20)
(-2.28762 -0.159396 0)
(-2.25272 -0.194373 0)
(-2.21149 -0.227053 5.59248e-20)
(-2.16423 -0.257275 0)
(-2.11137 -0.28496 -5.24016e-20)
(-2.05333 -0.310046 1.72865e-21)
(-1.9906 -0.332546 9.39879e-20)
(-1.92358 -0.352472 -9.04047e-20)
(-1.85255 -0.369908 0)
(-1.77811 -0.384898 0)
(-1.70086 -0.39765 -3.69256e-20)
(-1.6211 -0.408233 0)
(-1.5392 -0.416801 -2.73997e-20)
(-1.45549 -0.423486 2.35528e-20)
(-1.37023 -0.428506 1.95401e-20)
(-1.28366 -0.431995 0)
(-1.19593 -0.434202 -1.10055e-20)
(-1.10725 -0.435245 -6.50281e-21)
(-1.01767 -0.435359 5.12928e-21)
(-0.927331 -0.434676 2.90339e-21)
(-0.836304 -0.433478 7.78354e-21)
(-0.744741 -0.431881 0)
(-0.652623 -0.430087 0)
(-0.560021 -0.428081 -2.3079e-20)
(-0.466941 -0.426088 0)
(-0.373574 -0.424149 0)
(-0.279065 -0.422424 7.74477e-20)
(-0.183396 -0.420835 8.5874e-20)
(-0.0876197 -0.419437 0)
(0.00780219 -0.417925 0)
(0.102667 -0.416158 0)
(0.196799 -0.413918 0)
(0.290153 -0.411261 1.21701e-19)
(0.382614 -0.408063 -1.25588e-19)
(0.474105 -0.404422 -1.33966e-19)
(0.56451 -0.400234 -2.77148e-19)
(0.65374 -0.395664 0)
(0.741648 -0.390687 2.17002e-21)